<?xml version="1.0" encoding="UTF-8"?>

<!-- generated on 2021-09-23 18:34:35 by Eclipse SUMO GUI Version 1.10.0
<configuration xmlns:xsi="http://www.w3.org/2001/XMLSchema-instance" xsi:noNamespaceSchemaLocation="http://sumo.dlr.de/xsd/sumoConfiguration.xsd">

    <input>
        <net-file value="map.net.xml"/>
        <route-files value="routes.rou.xml"/>
    </input>

    <output>
        <tripinfo-output value="tripinfo.xml"/>
    </output>

    <traci_server>
        <remote-port value="49222"/>
    </traci_server>

</configuration>
-->

<tripinfos xmlns:xsi="http://www.w3.org/2001/XMLSchema-instance" xsi:noNamespaceSchemaLocation="http://sumo.dlr.de/xsd/tripinfo_file.xsd">
    <tripinfo id="flow_0.0" depart="0.00" departLane="gneE0_0" departPos="5.10" departSpeed="0.00" departDelay="0.00" arrival="31.00" arrivalLane="gneE1_1" arrivalPos="189.60" arrivalSpeed="13.59" duration="31.00" routeLength="394.90" waitingTime="0.00" waitingCount="0" stopTime="0.00" timeLoss="3.79" rerouteNo="0" devices="tripinfo_flow_0.0 routing_flow_0.0" vType="DEFAULT_VEHTYPE" speedFactor="1.06" vaporized=""/>
    <tripinfo id="flow_10.0" depart="3.00" departLane="gneE2_0" departPos="5.10" departSpeed="0.00" departDelay="3.00" arrival="36.00" arrivalLane="gneE1_0" arrivalPos="189.60" arrivalSpeed="14.26" duration="33.00" routeLength="379.93" waitingTime="0.00" waitingCount="0" stopTime="0.00" timeLoss="7.10" rerouteNo="0" devices="tripinfo_flow_10.0 routing_flow_10.0" vType="DEFAULT_VEHTYPE" speedFactor="1.09" vaporized=""/>
    <tripinfo id="flow_4.0" depart="3.00" departLane="-gneE3_0" departPos="5.10" departSpeed="0.00" departDelay="3.00" arrival="37.00" arrivalLane="-gneE0_0" arrivalPos="189.60" arrivalSpeed="13.04" duration="34.00" routeLength="379.93" waitingTime="0.00" waitingCount="0" stopTime="0.00" timeLoss="6.30" rerouteNo="0" devices="tripinfo_flow_4.0 routing_flow_4.0" vType="DEFAULT_VEHTYPE" speedFactor="1.03" vaporized=""/>
    <tripinfo id="flow_1.0" depart="3.00" departLane="gneE0_0" departPos="5.10" departSpeed="0.00" departDelay="3.00" arrival="39.00" arrivalLane="-gneE2_0" arrivalPos="186.40" arrivalSpeed="12.75" duration="36.00" routeLength="379.93" waitingTime="0.00" waitingCount="0" stopTime="0.00" timeLoss="5.60" rerouteNo="0" devices="tripinfo_flow_1.0 routing_flow_1.0" vType="DEFAULT_VEHTYPE" speedFactor="0.94" vaporized=""/>
    <tripinfo id="flow_7.0" depart="3.00" departLane="-gneE1_0" departPos="5.10" departSpeed="0.00" departDelay="3.00" arrival="41.00" arrivalLane="gneE3_0" arrivalPos="186.40" arrivalSpeed="11.77" duration="38.00" routeLength="379.93" waitingTime="0.00" waitingCount="0" stopTime="0.00" timeLoss="6.15" rerouteNo="0" devices="tripinfo_flow_7.0 routing_flow_7.0" vType="DEFAULT_VEHTYPE" speedFactor="0.89" vaporized=""/>
    <tripinfo id="flow_0.1" depart="9.00" departLane="gneE0_0" departPos="5.10" departSpeed="0.00" departDelay="1.80" arrival="41.00" arrivalLane="gneE1_1" arrivalPos="189.60" arrivalSpeed="13.44" duration="32.00" routeLength="394.90" waitingTime="0.00" waitingCount="0" stopTime="0.00" timeLoss="4.31" rerouteNo="0" devices="tripinfo_flow_0.1 routing_flow_0.1" vType="DEFAULT_VEHTYPE" speedFactor="1.05" vaporized=""/>
    <tripinfo id="flow_2.0" depart="6.00" departLane="gneE0_0" departPos="5.10" departSpeed="0.00" departDelay="6.00" arrival="42.00" arrivalLane="gneE3_1" arrivalPos="186.40" arrivalSpeed="13.01" duration="36.00" routeLength="392.89" waitingTime="0.00" waitingCount="0" stopTime="0.00" timeLoss="6.72" rerouteNo="0" devices="tripinfo_flow_2.0 routing_flow_2.0" vType="DEFAULT_VEHTYPE" speedFactor="1.01" vaporized=""/>
    <tripinfo id="flow_0.2" depart="15.00" departLane="gneE0_0" departPos="5.10" departSpeed="0.00" departDelay="0.60" arrival="48.00" arrivalLane="gneE1_1" arrivalPos="189.60" arrivalSpeed="12.74" duration="33.00" routeLength="394.90" waitingTime="0.00" waitingCount="0" stopTime="0.00" timeLoss="4.14" rerouteNo="0" devices="tripinfo_flow_0.2 routing_flow_0.2" vType="DEFAULT_VEHTYPE" speedFactor="0.99" vaporized=""/>
    <tripinfo id="flow_7.1" depart="18.00" departLane="-gneE1_0" departPos="5.10" departSpeed="0.00" departDelay="0.00" arrival="50.00" arrivalLane="gneE3_0" arrivalPos="186.40" arrivalSpeed="15.20" duration="32.00" routeLength="379.93" waitingTime="0.00" waitingCount="0" stopTime="0.00" timeLoss="7.03" rerouteNo="0" devices="tripinfo_flow_7.1 routing_flow_7.1" vType="DEFAULT_VEHTYPE" speedFactor="1.16" vaporized=""/>
    <tripinfo id="flow_1.1" depart="18.00" departLane="gneE0_0" departPos="5.10" departSpeed="0.00" departDelay="0.00" arrival="56.00" arrivalLane="-gneE2_0" arrivalPos="186.40" arrivalSpeed="10.99" duration="38.00" routeLength="379.93" waitingTime="0.00" waitingCount="0" stopTime="0.00" timeLoss="6.20" rerouteNo="0" devices="tripinfo_flow_1.1 routing_flow_1.1" vType="DEFAULT_VEHTYPE" speedFactor="0.88" vaporized=""/>
    <tripinfo id="flow_0.3" depart="23.00" departLane="gneE0_0" departPos="5.10" departSpeed="0.00" departDelay="1.40" arrival="56.00" arrivalLane="gneE1_1" arrivalPos="189.60" arrivalSpeed="13.25" duration="33.00" routeLength="394.90" waitingTime="0.00" waitingCount="0" stopTime="0.00" timeLoss="3.64" rerouteNo="0" devices="tripinfo_flow_0.3 routing_flow_0.3" vType="DEFAULT_VEHTYPE" speedFactor="0.98" vaporized=""/>
    <tripinfo id="flow_2.1" depart="21.00" departLane="gneE0_0" departPos="5.10" departSpeed="0.00" departDelay="3.00" arrival="58.00" arrivalLane="gneE3_1" arrivalPos="186.40" arrivalSpeed="12.83" duration="37.00" routeLength="392.89" waitingTime="0.00" waitingCount="0" stopTime="0.00" timeLoss="5.70" rerouteNo="0" devices="tripinfo_flow_2.1 routing_flow_2.1" vType="DEFAULT_VEHTYPE" speedFactor="0.94" vaporized=""/>
    <tripinfo id="flow_6.0" depart="0.00" departLane="-gneE1_0" departPos="5.10" departSpeed="0.00" departDelay="0.00" arrival="63.00" arrivalLane="-gneE0_1" arrivalPos="189.60" arrivalSpeed="13.56" duration="63.00" routeLength="394.90" waitingTime="26.00" waitingCount="1" stopTime="0.00" timeLoss="35.14" rerouteNo="0" devices="tripinfo_flow_6.0 routing_flow_6.0" vType="DEFAULT_VEHTYPE" speedFactor="1.05" vaporized=""/>
    <tripinfo id="flow_8.0" depart="6.00" departLane="-gneE1_0" departPos="5.10" departSpeed="0.00" departDelay="6.00" arrival="65.00" arrivalLane="-gneE2_1" arrivalPos="186.40" arrivalSpeed="12.59" duration="59.00" routeLength="392.89" waitingTime="17.00" waitingCount="1" stopTime="0.00" timeLoss="27.30" rerouteNo="0" devices="tripinfo_flow_8.0 routing_flow_8.0" vType="DEFAULT_VEHTYPE" speedFactor="0.94" vaporized=""/>
    <tripinfo id="flow_6.1" depart="8.00" departLane="-gneE1_0" departPos="5.10" departSpeed="0.00" departDelay="0.80" arrival="65.00" arrivalLane="-gneE0_1" arrivalPos="189.60" arrivalSpeed="15.55" duration="57.00" routeLength="394.90" waitingTime="19.00" waitingCount="1" stopTime="0.00" timeLoss="30.83" rerouteNo="0" devices="tripinfo_flow_6.1 routing_flow_6.1" vType="DEFAULT_VEHTYPE" speedFactor="1.12" vaporized=""/>
    <tripinfo id="flow_6.2" depart="15.00" departLane="-gneE1_0" departPos="5.10" departSpeed="0.00" departDelay="0.60" arrival="66.00" arrivalLane="-gneE0_2" arrivalPos="189.60" arrivalSpeed="12.45" duration="51.00" routeLength="394.90" waitingTime="10.00" waitingCount="1" stopTime="0.00" timeLoss="20.02" rerouteNo="0" devices="tripinfo_flow_6.2 routing_flow_6.2" vType="DEFAULT_VEHTYPE" speedFactor="0.93" vaporized=""/>
    <tripinfo id="flow_8.1" depart="21.00" departLane="-gneE1_0" departPos="5.10" departSpeed="0.00" departDelay="3.00" arrival="67.00" arrivalLane="-gneE2_1" arrivalPos="186.40" arrivalSpeed="13.47" duration="46.00" routeLength="392.89" waitingTime="7.00" waitingCount="1" stopTime="0.00" timeLoss="17.43" rerouteNo="0" devices="tripinfo_flow_8.1 routing_flow_8.1" vType="DEFAULT_VEHTYPE" speedFactor="1.02" vaporized=""/>
    <tripinfo id="flow_6.5" depart="36.00" departLane="-gneE1_0" departPos="5.10" departSpeed="0.00" departDelay="0.00" arrival="68.00" arrivalLane="-gneE0_2" arrivalPos="189.60" arrivalSpeed="15.59" duration="32.00" routeLength="394.90" waitingTime="0.00" waitingCount="0" stopTime="0.00" timeLoss="6.69" rerouteNo="0" devices="tripinfo_flow_6.5 routing_flow_6.5" vType="DEFAULT_VEHTYPE" speedFactor="1.15" vaporized=""/>
    <tripinfo id="flow_6.3" depart="24.00" departLane="-gneE1_0" departPos="5.10" departSpeed="0.00" departDelay="2.40" arrival="69.00" arrivalLane="-gneE0_1" arrivalPos="189.60" arrivalSpeed="11.57" duration="45.00" routeLength="394.90" waitingTime="1.00" waitingCount="1" stopTime="0.00" timeLoss="13.00" rerouteNo="0" devices="tripinfo_flow_6.3 routing_flow_6.3" vType="DEFAULT_VEHTYPE" speedFactor="0.89" vaporized=""/>
    <tripinfo id="flow_6.4" depart="29.00" departLane="-gneE1_0" departPos="5.10" departSpeed="0.00" departDelay="0.20" arrival="72.00" arrivalLane="-gneE0_1" arrivalPos="189.60" arrivalSpeed="11.89" duration="43.00" routeLength="394.90" waitingTime="0.00" waitingCount="0" stopTime="0.00" timeLoss="9.87" rerouteNo="0" devices="tripinfo_flow_6.4 routing_flow_6.4" vType="DEFAULT_VEHTYPE" speedFactor="0.87" vaporized=""/>
    <tripinfo id="flow_7.2" depart="39.00" departLane="-gneE1_0" departPos="5.10" departSpeed="0.00" departDelay="3.00" arrival="73.00" arrivalLane="gneE3_0" arrivalPos="186.40" arrivalSpeed="13.71" duration="34.00" routeLength="379.93" waitingTime="0.00" waitingCount="0" stopTime="0.00" timeLoss="5.65" rerouteNo="0" devices="tripinfo_flow_7.2 routing_flow_7.2" vType="DEFAULT_VEHTYPE" speedFactor="1.01" vaporized=""/>
    <tripinfo id="flow_8.2" depart="42.00" departLane="-gneE1_0" departPos="5.10" departSpeed="0.00" departDelay="6.00" arrival="74.00" arrivalLane="-gneE2_1" arrivalPos="186.40" arrivalSpeed="15.61" duration="32.00" routeLength="392.89" waitingTime="0.00" waitingCount="0" stopTime="0.00" timeLoss="6.44" rerouteNo="0" devices="tripinfo_flow_8.2 routing_flow_8.2" vType="DEFAULT_VEHTYPE" speedFactor="1.17" vaporized=""/>
    <tripinfo id="flow_6.6" depart="44.00" departLane="-gneE1_0" departPos="5.10" departSpeed="0.00" departDelay="0.80" arrival="74.00" arrivalLane="-gneE0_1" arrivalPos="189.60" arrivalSpeed="15.65" duration="30.00" routeLength="394.90" waitingTime="0.00" waitingCount="0" stopTime="0.00" timeLoss="5.05" rerouteNo="0" devices="tripinfo_flow_6.6 routing_flow_6.6" vType="DEFAULT_VEHTYPE" speedFactor="1.18" vaporized=""/>
    <tripinfo id="flow_1.2" depart="39.00" departLane="gneE0_0" departPos="5.10" departSpeed="0.00" departDelay="3.00" arrival="75.00" arrivalLane="-gneE2_0" arrivalPos="186.40" arrivalSpeed="12.93" duration="36.00" routeLength="379.93" waitingTime="0.00" waitingCount="0" stopTime="0.00" timeLoss="6.46" rerouteNo="0" devices="tripinfo_flow_1.2 routing_flow_1.2" vType="DEFAULT_VEHTYPE" speedFactor="0.95" vaporized=""/>
    <tripinfo id="flow_6.7" depart="51.00" departLane="-gneE1_0" departPos="5.10" departSpeed="0.00" departDelay="0.60" arrival="87.00" arrivalLane="-gneE0_1" arrivalPos="189.60" arrivalSpeed="12.18" duration="36.00" routeLength="394.90" waitingTime="0.00" waitingCount="0" stopTime="0.00" timeLoss="3.90" rerouteNo="0" devices="tripinfo_flow_6.7 routing_flow_6.7" vType="DEFAULT_VEHTYPE" speedFactor="0.90" vaporized=""/>
    <tripinfo id="flow_1.3" depart="54.00" departLane="gneE0_0" departPos="5.10" departSpeed="0.00" departDelay="0.00" arrival="88.00" arrivalLane="-gneE2_0" arrivalPos="186.40" arrivalSpeed="13.91" duration="34.00" routeLength="379.93" waitingTime="0.00" waitingCount="0" stopTime="0.00" timeLoss="6.20" rerouteNo="0" devices="tripinfo_flow_1.3 routing_flow_1.3" vType="DEFAULT_VEHTYPE" speedFactor="1.03" vaporized=""/>
    <tripinfo id="flow_7.3" depart="54.00" departLane="-gneE1_0" departPos="5.10" departSpeed="0.00" departDelay="0.00" arrival="88.00" arrivalLane="gneE3_0" arrivalPos="186.40" arrivalSpeed="13.76" duration="34.00" routeLength="379.93" waitingTime="0.00" waitingCount="0" stopTime="0.00" timeLoss="5.81" rerouteNo="0" devices="tripinfo_flow_7.3 routing_flow_7.3" vType="DEFAULT_VEHTYPE" speedFactor="1.04" vaporized=""/>
    <tripinfo id="flow_8.3" depart="57.00" departLane="-gneE1_0" departPos="5.10" departSpeed="0.00" departDelay="3.00" arrival="91.00" arrivalLane="-gneE2_1" arrivalPos="186.40" arrivalSpeed="13.63" duration="34.00" routeLength="392.89" waitingTime="0.00" waitingCount="0" stopTime="0.00" timeLoss="5.90" rerouteNo="0" devices="tripinfo_flow_8.3 routing_flow_8.3" vType="DEFAULT_VEHTYPE" speedFactor="1.04" vaporized=""/>
    <tripinfo id="flow_6.8" depart="59.00" departLane="-gneE1_0" departPos="5.10" departSpeed="0.00" departDelay="1.40" arrival="96.00" arrivalLane="-gneE0_1" arrivalPos="189.60" arrivalSpeed="12.12" duration="37.00" routeLength="394.90" waitingTime="0.00" waitingCount="0" stopTime="0.00" timeLoss="4.91" rerouteNo="0" devices="tripinfo_flow_6.8 routing_flow_6.8" vType="DEFAULT_VEHTYPE" speedFactor="0.90" vaporized=""/>
    <tripinfo id="flow_6.9" depart="65.00" departLane="-gneE1_0" departPos="5.10" departSpeed="0.00" departDelay="0.20" arrival="103.00" arrivalLane="-gneE0_1" arrivalPos="189.60" arrivalSpeed="10.70" duration="38.00" routeLength="394.90" waitingTime="0.00" waitingCount="0" stopTime="0.00" timeLoss="4.25" rerouteNo="0" devices="tripinfo_flow_6.9 routing_flow_6.9" vType="DEFAULT_VEHTYPE" speedFactor="0.85" vaporized=""/>
    <tripinfo id="flow_1.4" depart="75.00" departLane="gneE0_0" departPos="5.10" departSpeed="0.00" departDelay="3.00" arrival="105.00" arrivalLane="-gneE2_0" arrivalPos="186.40" arrivalSpeed="15.57" duration="30.00" routeLength="379.93" waitingTime="0.00" waitingCount="0" stopTime="0.00" timeLoss="5.97" rerouteNo="0" devices="tripinfo_flow_1.4 routing_flow_1.4" vType="DEFAULT_VEHTYPE" speedFactor="1.17" vaporized=""/>
    <tripinfo id="flow_3.0" depart="0.00" departLane="-gneE3_0" departPos="5.10" departSpeed="0.00" departDelay="0.00" arrival="107.00" arrivalLane="-gneE2_1" arrivalPos="186.40" arrivalSpeed="14.61" duration="107.00" routeLength="394.90" waitingTime="72.00" waitingCount="1" stopTime="0.00" timeLoss="80.70" rerouteNo="0" devices="tripinfo_flow_3.0 routing_flow_3.0" vType="DEFAULT_VEHTYPE" speedFactor="1.08" vaporized=""/>
    <tripinfo id="flow_7.4" depart="75.00" departLane="-gneE1_0" departPos="5.10" departSpeed="0.00" departDelay="3.00" arrival="107.00" arrivalLane="gneE3_0" arrivalPos="186.40" arrivalSpeed="14.60" duration="32.00" routeLength="379.93" waitingTime="0.00" waitingCount="0" stopTime="0.00" timeLoss="6.72" rerouteNo="0" devices="tripinfo_flow_7.4 routing_flow_7.4" vType="DEFAULT_VEHTYPE" speedFactor="1.14" vaporized=""/>
    <tripinfo id="flow_10.1" depart="75.00" departLane="gneE2_0" departPos="5.10" departSpeed="0.00" departDelay="3.00" arrival="107.00" arrivalLane="gneE1_0" arrivalPos="189.60" arrivalSpeed="14.21" duration="32.00" routeLength="379.93" waitingTime="0.00" waitingCount="0" stopTime="0.00" timeLoss="6.15" rerouteNo="0" devices="tripinfo_flow_10.1 routing_flow_10.1" vType="DEFAULT_VEHTYPE" speedFactor="1.08" vaporized=""/>
    <tripinfo id="flow_4.1" depart="75.00" departLane="-gneE3_0" departPos="5.10" departSpeed="0.00" departDelay="3.00" arrival="108.00" arrivalLane="-gneE0_0" arrivalPos="189.60" arrivalSpeed="12.73" duration="33.00" routeLength="379.93" waitingTime="0.00" waitingCount="0" stopTime="0.00" timeLoss="5.07" rerouteNo="0" devices="tripinfo_flow_4.1 routing_flow_4.1" vType="DEFAULT_VEHTYPE" speedFactor="1.00" vaporized=""/>
    <tripinfo id="flow_3.1" depart="18.00" departLane="-gneE3_0" departPos="5.10" departSpeed="0.00" departDelay="0.00" arrival="113.00" arrivalLane="-gneE2_1" arrivalPos="186.40" arrivalSpeed="12.57" duration="95.00" routeLength="394.90" waitingTime="54.00" waitingCount="1" stopTime="0.00" timeLoss="64.21" rerouteNo="0" devices="tripinfo_flow_3.1 routing_flow_3.1" vType="DEFAULT_VEHTYPE" speedFactor="0.94" vaporized=""/>
    <tripinfo id="flow_5.0" depart="6.00" departLane="-gneE3_0" departPos="5.10" departSpeed="0.00" departDelay="6.00" arrival="114.00" arrivalLane="gneE1_2" arrivalPos="189.60" arrivalSpeed="11.36" duration="108.00" routeLength="392.89" waitingTime="64.00" waitingCount="1" stopTime="0.00" timeLoss="72.35" rerouteNo="0" devices="tripinfo_flow_5.0 routing_flow_5.0" vType="DEFAULT_VEHTYPE" speedFactor="0.83" vaporized=""/>
    <tripinfo id="flow_3.2" depart="36.00" departLane="-gneE3_0" departPos="5.10" departSpeed="0.00" departDelay="0.00" arrival="115.00" arrivalLane="-gneE2_1" arrivalPos="186.40" arrivalSpeed="12.80" duration="79.00" routeLength="394.90" waitingTime="37.00" waitingCount="1" stopTime="0.00" timeLoss="47.88" rerouteNo="0" devices="tripinfo_flow_3.2 routing_flow_3.2" vType="DEFAULT_VEHTYPE" speedFactor="0.93" vaporized=""/>
    <tripinfo id="flow_5.1" depart="39.00" departLane="-gneE3_0" departPos="5.10" departSpeed="0.00" departDelay="3.00" arrival="115.00" arrivalLane="gneE1_2" arrivalPos="189.60" arrivalSpeed="13.75" duration="76.00" routeLength="392.89" waitingTime="37.00" waitingCount="1" stopTime="0.00" timeLoss="51.46" rerouteNo="0" devices="tripinfo_flow_5.1 routing_flow_5.1" vType="DEFAULT_VEHTYPE" speedFactor="1.18" vaporized=""/>
    <tripinfo id="flow_3.3" depart="54.00" departLane="-gneE3_0" departPos="5.10" departSpeed="0.00" departDelay="0.00" arrival="117.00" arrivalLane="-gneE2_1" arrivalPos="186.40" arrivalSpeed="14.29" duration="63.00" routeLength="394.90" waitingTime="24.00" waitingCount="1" stopTime="0.00" timeLoss="36.47" rerouteNo="0" devices="tripinfo_flow_3.3 routing_flow_3.3" vType="DEFAULT_VEHTYPE" speedFactor="1.09" vaporized=""/>
    <tripinfo id="flow_3.4" depart="72.00" departLane="-gneE3_0" departPos="5.10" departSpeed="0.00" departDelay="0.00" arrival="119.00" arrivalLane="-gneE2_1" arrivalPos="186.40" arrivalSpeed="14.15" duration="47.00" routeLength="394.90" waitingTime="8.00" waitingCount="1" stopTime="0.00" timeLoss="20.36" rerouteNo="0" devices="tripinfo_flow_3.4 routing_flow_3.4" vType="DEFAULT_VEHTYPE" speedFactor="1.10" vaporized=""/>
    <tripinfo id="flow_5.2" depart="78.00" departLane="-gneE3_0" departPos="5.10" departSpeed="0.00" departDelay="6.00" arrival="123.00" arrivalLane="gneE1_2" arrivalPos="189.60" arrivalSpeed="12.57" duration="45.00" routeLength="392.89" waitingTime="4.00" waitingCount="1" stopTime="0.00" timeLoss="15.42" rerouteNo="0" devices="tripinfo_flow_5.2 routing_flow_5.2" vType="DEFAULT_VEHTYPE" speedFactor="1.00" vaporized=""/>
    <tripinfo id="flow_3.5" depart="90.00" departLane="-gneE3_0" departPos="5.10" departSpeed="0.00" departDelay="0.00" arrival="124.00" arrivalLane="-gneE2_1" arrivalPos="186.40" arrivalSpeed="14.04" duration="34.00" routeLength="394.90" waitingTime="0.00" waitingCount="0" stopTime="0.00" timeLoss="6.02" rerouteNo="0" devices="tripinfo_flow_3.5 routing_flow_3.5" vType="DEFAULT_VEHTYPE" speedFactor="1.04" vaporized=""/>
    <tripinfo id="flow_7.5" depart="90.00" departLane="-gneE1_0" departPos="5.10" departSpeed="0.00" departDelay="0.00" arrival="124.00" arrivalLane="gneE3_0" arrivalPos="186.40" arrivalSpeed="13.06" duration="34.00" routeLength="379.93" waitingTime="0.00" waitingCount="0" stopTime="0.00" timeLoss="6.30" rerouteNo="0" devices="tripinfo_flow_7.5 routing_flow_7.5" vType="DEFAULT_VEHTYPE" speedFactor="1.02" vaporized=""/>
    <tripinfo id="flow_1.5" depart="90.00" departLane="gneE0_0" departPos="5.10" departSpeed="0.00" departDelay="0.00" arrival="128.00" arrivalLane="-gneE2_0" arrivalPos="186.40" arrivalSpeed="11.98" duration="38.00" routeLength="379.93" waitingTime="0.00" waitingCount="0" stopTime="0.00" timeLoss="6.05" rerouteNo="0" devices="tripinfo_flow_1.5 routing_flow_1.5" vType="DEFAULT_VEHTYPE" speedFactor="0.91" vaporized=""/>
    <tripinfo id="flow_11.0" depart="6.00" departLane="gneE2_0" departPos="5.10" departSpeed="0.00" departDelay="6.00" arrival="143.00" arrivalLane="-gneE0_2" arrivalPos="189.60" arrivalSpeed="13.60" duration="137.00" routeLength="392.89" waitingTime="98.00" waitingCount="1" stopTime="0.00" timeLoss="108.53" rerouteNo="0" devices="tripinfo_flow_11.0 routing_flow_11.0" vType="DEFAULT_VEHTYPE" speedFactor="1.03" vaporized=""/>
    <tripinfo id="flow_9.0" depart="0.00" departLane="gneE2_0" departPos="5.10" departSpeed="0.00" departDelay="0.00" arrival="144.00" arrivalLane="gneE3_1" arrivalPos="186.40" arrivalSpeed="11.33" duration="144.00" routeLength="394.90" waitingTime="100.00" waitingCount="1" stopTime="0.00" timeLoss="110.15" rerouteNo="0" devices="tripinfo_flow_9.0 routing_flow_9.0" vType="DEFAULT_VEHTYPE" speedFactor="0.86" vaporized=""/>
    <tripinfo id="flow_7.6" depart="111.00" departLane="-gneE1_0" departPos="5.10" departSpeed="0.00" departDelay="3.00" arrival="145.00" arrivalLane="gneE3_0" arrivalPos="186.40" arrivalSpeed="13.99" duration="34.00" routeLength="379.93" waitingTime="0.00" waitingCount="0" stopTime="0.00" timeLoss="6.19" rerouteNo="0" devices="tripinfo_flow_7.6 routing_flow_7.6" vType="DEFAULT_VEHTYPE" speedFactor="1.02" vaporized=""/>
    <tripinfo id="flow_9.1" depart="18.00" departLane="gneE2_0" departPos="5.10" departSpeed="0.00" departDelay="0.00" arrival="146.00" arrivalLane="gneE3_1" arrivalPos="186.40" arrivalSpeed="14.01" duration="128.00" routeLength="394.90" waitingTime="89.00" waitingCount="1" stopTime="0.00" timeLoss="98.97" rerouteNo="0" devices="tripinfo_flow_9.1 routing_flow_9.1" vType="DEFAULT_VEHTYPE" speedFactor="1.01" vaporized=""/>
    <tripinfo id="flow_1.6" depart="111.00" departLane="gneE0_0" departPos="5.10" departSpeed="0.00" departDelay="3.00" arrival="147.00" arrivalLane="-gneE2_0" arrivalPos="186.40" arrivalSpeed="13.06" duration="36.00" routeLength="379.93" waitingTime="0.00" waitingCount="0" stopTime="0.00" timeLoss="6.79" rerouteNo="0" devices="tripinfo_flow_1.6 routing_flow_1.6" vType="DEFAULT_VEHTYPE" speedFactor="0.98" vaporized=""/>
    <tripinfo id="flow_9.2" depart="36.00" departLane="gneE2_0" departPos="5.10" departSpeed="0.00" departDelay="0.00" arrival="148.00" arrivalLane="gneE3_1" arrivalPos="186.40" arrivalSpeed="13.26" duration="112.00" routeLength="394.90" waitingTime="72.00" waitingCount="1" stopTime="0.00" timeLoss="82.65" rerouteNo="0" devices="tripinfo_flow_9.2 routing_flow_9.2" vType="DEFAULT_VEHTYPE" speedFactor="0.99" vaporized=""/>
    <tripinfo id="flow_11.1" depart="39.00" departLane="gneE2_0" departPos="5.10" departSpeed="0.00" departDelay="3.00" arrival="151.00" arrivalLane="-gneE0_2" arrivalPos="189.60" arrivalSpeed="13.76" duration="112.00" routeLength="392.89" waitingTime="70.00" waitingCount="1" stopTime="0.00" timeLoss="82.80" rerouteNo="0" devices="tripinfo_flow_11.1 routing_flow_11.1" vType="DEFAULT_VEHTYPE" speedFactor="1.02" vaporized=""/>
    <tripinfo id="flow_9.3" depart="54.00" departLane="gneE2_0" departPos="5.10" departSpeed="0.00" departDelay="0.00" arrival="151.00" arrivalLane="gneE3_1" arrivalPos="186.40" arrivalSpeed="14.25" duration="97.00" routeLength="394.90" waitingTime="57.00" waitingCount="1" stopTime="0.00" timeLoss="70.42" rerouteNo="0" devices="tripinfo_flow_9.3 routing_flow_9.3" vType="DEFAULT_VEHTYPE" speedFactor="1.09" vaporized=""/>
    <tripinfo id="flow_9.4" depart="72.00" departLane="gneE2_0" departPos="5.10" departSpeed="0.00" departDelay="0.00" arrival="154.00" arrivalLane="gneE3_1" arrivalPos="186.40" arrivalSpeed="12.37" duration="82.00" routeLength="394.90" waitingTime="40.00" waitingCount="1" stopTime="0.00" timeLoss="52.57" rerouteNo="0" devices="tripinfo_flow_9.4 routing_flow_9.4" vType="DEFAULT_VEHTYPE" speedFactor="0.97" vaporized=""/>
    <tripinfo id="flow_11.2" depart="78.00" departLane="gneE2_0" departPos="5.10" departSpeed="0.00" departDelay="6.00" arrival="155.00" arrivalLane="-gneE0_2" arrivalPos="189.60" arrivalSpeed="15.30" duration="77.00" routeLength="392.89" waitingTime="36.00" waitingCount="1" stopTime="0.00" timeLoss="51.05" rerouteNo="0" devices="tripinfo_flow_11.2 routing_flow_11.2" vType="DEFAULT_VEHTYPE" speedFactor="1.12" vaporized=""/>
    <tripinfo id="flow_9.5" depart="90.00" departLane="gneE2_0" departPos="5.10" departSpeed="0.00" departDelay="0.00" arrival="159.00" arrivalLane="gneE3_1" arrivalPos="186.40" arrivalSpeed="12.39" duration="69.00" routeLength="394.90" waitingTime="26.00" waitingCount="1" stopTime="0.00" timeLoss="39.07" rerouteNo="0" devices="tripinfo_flow_9.5 routing_flow_9.5" vType="DEFAULT_VEHTYPE" speedFactor="0.97" vaporized=""/>
    <tripinfo id="flow_9.6" depart="108.00" departLane="gneE2_0" departPos="5.10" departSpeed="0.00" departDelay="0.00" arrival="160.00" arrivalLane="gneE3_1" arrivalPos="186.40" arrivalSpeed="15.18" duration="52.00" routeLength="394.90" waitingTime="10.00" waitingCount="1" stopTime="0.00" timeLoss="27.07" rerouteNo="0" devices="tripinfo_flow_9.6 routing_flow_9.6" vType="DEFAULT_VEHTYPE" speedFactor="1.15" vaporized=""/>
    <tripinfo id="flow_1.7" depart="126.00" departLane="gneE0_0" departPos="5.10" departSpeed="0.00" departDelay="0.00" arrival="160.00" arrivalLane="-gneE2_0" arrivalPos="186.40" arrivalSpeed="13.58" duration="34.00" routeLength="379.93" waitingTime="0.00" waitingCount="0" stopTime="0.00" timeLoss="6.01" rerouteNo="0" devices="tripinfo_flow_1.7 routing_flow_1.7" vType="DEFAULT_VEHTYPE" speedFactor="1.02" vaporized=""/>
    <tripinfo id="flow_7.7" depart="126.00" departLane="-gneE1_0" departPos="5.10" departSpeed="0.00" departDelay="0.00" arrival="163.00" arrivalLane="gneE3_0" arrivalPos="186.40" arrivalSpeed="12.16" duration="37.00" routeLength="379.93" waitingTime="0.00" waitingCount="0" stopTime="0.00" timeLoss="6.20" rerouteNo="0" devices="tripinfo_flow_7.7 routing_flow_7.7" vType="DEFAULT_VEHTYPE" speedFactor="0.92" vaporized=""/>
    <tripinfo id="flow_11.3" depart="111.00" departLane="gneE2_0" departPos="5.10" departSpeed="0.00" departDelay="3.00" arrival="164.00" arrivalLane="-gneE0_2" arrivalPos="189.60" arrivalSpeed="12.57" duration="53.00" routeLength="392.89" waitingTime="9.00" waitingCount="1" stopTime="0.00" timeLoss="23.24" rerouteNo="0" devices="tripinfo_flow_11.3 routing_flow_11.3" vType="DEFAULT_VEHTYPE" speedFactor="0.98" vaporized=""/>
    <tripinfo id="flow_9.7" depart="126.00" departLane="gneE2_0" departPos="5.10" departSpeed="0.00" departDelay="0.00" arrival="165.00" arrivalLane="gneE3_1" arrivalPos="186.40" arrivalSpeed="13.95" duration="39.00" routeLength="394.90" waitingTime="0.00" waitingCount="0" stopTime="0.00" timeLoss="11.86" rerouteNo="0" devices="tripinfo_flow_9.7 routing_flow_9.7" vType="DEFAULT_VEHTYPE" speedFactor="1.06" vaporized=""/>
    <tripinfo id="flow_2.2" depart="42.00" departLane="gneE0_0" departPos="5.10" departSpeed="0.00" departDelay="6.00" arrival="174.00" arrivalLane="gneE3_1" arrivalPos="186.40" arrivalSpeed="15.66" duration="132.00" routeLength="392.89" waitingTime="95.00" waitingCount="1" stopTime="0.00" timeLoss="106.32" rerouteNo="0" devices="tripinfo_flow_2.2 routing_flow_2.2" vType="DEFAULT_VEHTYPE" speedFactor="1.13" vaporized=""/>
    <tripinfo id="flow_0.5" depart="36.00" departLane="gneE0_0" departPos="5.10" departSpeed="0.00" departDelay="0.00" arrival="176.00" arrivalLane="gneE1_1" arrivalPos="189.60" arrivalSpeed="11.69" duration="140.00" routeLength="394.90" waitingTime="99.00" waitingCount="1" stopTime="0.00" timeLoss="108.13" rerouteNo="0" devices="tripinfo_flow_0.5 routing_flow_0.5" vType="DEFAULT_VEHTYPE" speedFactor="0.92" vaporized=""/>
    <tripinfo id="flow_0.4" depart="29.00" departLane="gneE0_0" departPos="5.10" departSpeed="0.00" departDelay="0.20" arrival="177.00" arrivalLane="gneE1_1" arrivalPos="189.60" arrivalSpeed="11.18" duration="148.00" routeLength="394.90" waitingTime="104.00" waitingCount="1" stopTime="0.00" timeLoss="113.25" rerouteNo="0" devices="tripinfo_flow_0.4 routing_flow_0.4" vType="DEFAULT_VEHTYPE" speedFactor="0.83" vaporized=""/>
    <tripinfo id="flow_0.6" depart="44.00" departLane="gneE0_0" departPos="5.10" departSpeed="0.00" departDelay="0.80" arrival="179.00" arrivalLane="gneE1_1" arrivalPos="189.60" arrivalSpeed="12.80" duration="135.00" routeLength="394.90" waitingTime="93.00" waitingCount="1" stopTime="0.00" timeLoss="105.12" rerouteNo="0" devices="tripinfo_flow_0.6 routing_flow_0.6" vType="DEFAULT_VEHTYPE" speedFactor="0.97" vaporized=""/>
    <tripinfo id="flow_2.3" depart="57.00" departLane="gneE0_0" departPos="5.10" departSpeed="0.00" departDelay="3.00" arrival="179.00" arrivalLane="gneE3_1" arrivalPos="186.40" arrivalSpeed="13.01" duration="122.00" routeLength="392.89" waitingTime="81.00" waitingCount="1" stopTime="0.00" timeLoss="91.78" rerouteNo="0" devices="tripinfo_flow_2.3 routing_flow_2.3" vType="DEFAULT_VEHTYPE" speedFactor="0.96" vaporized=""/>
    <tripinfo id="flow_0.7" depart="51.00" departLane="gneE0_0" departPos="5.10" departSpeed="0.00" departDelay="0.60" arrival="180.00" arrivalLane="gneE1_1" arrivalPos="189.60" arrivalSpeed="14.91" duration="129.00" routeLength="394.90" waitingTime="88.00" waitingCount="1" stopTime="0.00" timeLoss="103.07" rerouteNo="0" devices="tripinfo_flow_0.7 routing_flow_0.7" vType="DEFAULT_VEHTYPE" speedFactor="1.10" vaporized=""/>
    <tripinfo id="flow_7.8" depart="147.00" departLane="-gneE1_0" departPos="5.10" departSpeed="0.00" departDelay="3.00" arrival="181.00" arrivalLane="gneE3_0" arrivalPos="186.40" arrivalSpeed="14.16" duration="34.00" routeLength="379.93" waitingTime="0.00" waitingCount="0" stopTime="0.00" timeLoss="6.64" rerouteNo="0" devices="tripinfo_flow_7.8 routing_flow_7.8" vType="DEFAULT_VEHTYPE" speedFactor="1.03" vaporized=""/>
    <tripinfo id="flow_0.8" depart="59.00" departLane="gneE0_0" departPos="5.10" departSpeed="0.00" departDelay="1.40" arrival="182.00" arrivalLane="gneE1_1" arrivalPos="189.60" arrivalSpeed="12.71" duration="123.00" routeLength="394.90" waitingTime="81.00" waitingCount="1" stopTime="0.00" timeLoss="94.29" rerouteNo="0" devices="tripinfo_flow_0.8 routing_flow_0.8" vType="DEFAULT_VEHTYPE" speedFactor="1.00" vaporized=""/>