<?xml version="1.0" encoding="UTF-8"?>

<!-- generated on 2022-02-18 03:41:58 by Eclipse SUMO GUI Version 1.10.0
<configuration xmlns:xsi="http://www.w3.org/2001/XMLSchema-instance" xsi:noNamespaceSchemaLocation="http://sumo.dlr.de/xsd/sumoConfiguration.xsd">

    <input>
        <net-file value="map.net.xml"/>
        <route-files value="routes.rou.xml"/>
    </input>

    <output>
        <tripinfo-output value="tripinfo.xml"/>
    </output>

    <time>
        <begin value="0"/>
        <end value="3600"/>
    </time>

    <traci_server>
        <remote-port value="65483"/>
    </traci_server>

</configuration>
-->

<tripinfos xmlns:xsi="http://www.w3.org/2001/XMLSchema-instance" xsi:noNamespaceSchemaLocation="http://sumo.dlr.de/xsd/tripinfo_file.xsd">
    <tripinfo id="flow_0.0" depart="0.00" departLane="gneE0_0" departPos="5.10" departSpeed="0.00" departDelay="0.00" arrival="18.00" arrivalLane="-gneE2_0" arrivalPos="86.40" arrivalSpeed="14.03" duration="18.00" routeLength="176.73" waitingTime="0.00" waitingCount="0" stopTime="0.00" timeLoss="5.41" rerouteNo="0" devices="tripinfo_flow_0.0 routing_flow_0.0" vType="DEFAULT_VEHTYPE" speedFactor="1.06" vaporized=""/>
    <tripinfo id="flow_3.0" depart="0.00" departLane="gneE2_0" departPos="5.10" departSpeed="0.00" departDelay="0.00" arrival="19.00" arrivalLane="gneE1_0" arrivalPos="86.40" arrivalSpeed="14.47" duration="19.00" routeLength="176.73" waitingTime="0.00" waitingCount="0" stopTime="0.00" timeLoss="6.25" rerouteNo="0" devices="tripinfo_flow_3.0 routing_flow_3.0" vType="DEFAULT_VEHTYPE" speedFactor="1.08" vaporized=""/>
    <tripinfo id="flow_6.0" depart="0.00" departLane="-gneE1_0" departPos="5.10" departSpeed="0.00" departDelay="0.00" arrival="19.00" arrivalLane="gneE3_0" arrivalPos="86.40" arrivalSpeed="13.97" duration="19.00" routeLength="176.73" waitingTime="0.00" waitingCount="0" stopTime="0.00" timeLoss="5.57" rerouteNo="0" devices="tripinfo_flow_6.0 routing_flow_6.0" vType="DEFAULT_VEHTYPE" speedFactor="1.05" vaporized=""/>
    <tripinfo id="flow_9.0" depart="0.00" departLane="-gneE3_0" departPos="5.10" departSpeed="0.00" departDelay="0.00" arrival="21.00" arrivalLane="-gneE0_0" arrivalPos="86.40" arrivalSpeed="11.06" duration="21.00" routeLength="176.73" waitingTime="0.00" waitingCount="0" stopTime="0.00" timeLoss="5.12" rerouteNo="0" devices="tripinfo_flow_9.0 routing_flow_9.0" vType="DEFAULT_VEHTYPE" speedFactor="0.86" vaporized=""/>
    <tripinfo id="flow_1.0" depart="3.00" departLane="gneE0_0" departPos="5.10" departSpeed="0.00" departDelay="3.00" arrival="22.00" arrivalLane="gneE1_1" arrivalPos="86.40" arrivalSpeed="12.67" duration="19.00" routeLength="194.90" waitingTime="0.00" waitingCount="0" stopTime="0.00" timeLoss="3.33" rerouteNo="0" devices="tripinfo_flow_1.0 routing_flow_1.0" vType="DEFAULT_VEHTYPE" speedFactor="0.94" vaporized=""/>
    <tripinfo id="flow_1.1" depart="6.00" departLane="gneE0_0" departPos="5.10" departSpeed="0.00" departDelay="0.00" arrival="24.00" arrivalLane="gneE1_1" arrivalPos="86.40" arrivalSpeed="14.13" duration="18.00" routeLength="194.90" waitingTime="0.00" waitingCount="0" stopTime="0.00" timeLoss="3.96" rerouteNo="0" devices="tripinfo_flow_1.1 routing_flow_1.1" vType="DEFAULT_VEHTYPE" speedFactor="1.05" vaporized=""/>
    <tripinfo id="flow_2.0" depart="5.00" departLane="gneE0_0" departPos="5.10" departSpeed="0.00" departDelay="5.00" arrival="25.00" arrivalLane="gneE3_2" arrivalPos="86.40" arrivalSpeed="13.13" duration="20.00" routeLength="192.21" waitingTime="0.00" waitingCount="0" stopTime="0.00" timeLoss="5.56" rerouteNo="0" devices="tripinfo_flow_2.0 routing_flow_2.0" vType="DEFAULT_VEHTYPE" speedFactor="1.01" vaporized=""/>
    <tripinfo id="flow_1.2" depart="12.00" departLane="gneE0_0" departPos="5.10" departSpeed="0.00" departDelay="0.00" arrival="32.00" arrivalLane="gneE1_1" arrivalPos="86.40" arrivalSpeed="11.66" duration="20.00" routeLength="194.90" waitingTime="0.00" waitingCount="0" stopTime="0.00" timeLoss="3.28" rerouteNo="0" devices="tripinfo_flow_1.2 routing_flow_1.2" vType="DEFAULT_VEHTYPE" speedFactor="0.88" vaporized=""/>
    <tripinfo id="flow_0.1" depart="18.00" departLane="gneE0_0" departPos="5.10" departSpeed="0.00" departDelay="0.00" arrival="36.00" arrivalLane="-gneE2_0" arrivalPos="86.40" arrivalSpeed="14.01" duration="18.00" routeLength="176.73" waitingTime="0.00" waitingCount="0" stopTime="0.00" timeLoss="5.02" rerouteNo="0" devices="tripinfo_flow_0.1 routing_flow_0.1" vType="DEFAULT_VEHTYPE" speedFactor="1.02" vaporized=""/>
    <tripinfo id="flow_6.1" depart="18.00" departLane="-gneE1_0" departPos="5.10" departSpeed="0.00" departDelay="0.00" arrival="38.00" arrivalLane="gneE3_0" arrivalPos="86.40" arrivalSpeed="12.43" duration="20.00" routeLength="176.73" waitingTime="0.00" waitingCount="0" stopTime="0.00" timeLoss="5.19" rerouteNo="0" devices="tripinfo_flow_6.1 routing_flow_6.1" vType="DEFAULT_VEHTYPE" speedFactor="0.92" vaporized=""/>
    <tripinfo id="flow_9.1" depart="18.00" departLane="-gneE3_0" departPos="5.10" departSpeed="0.00" departDelay="0.00" arrival="38.00" arrivalLane="-gneE0_0" arrivalPos="86.40" arrivalSpeed="12.64" duration="20.00" routeLength="176.73" waitingTime="0.00" waitingCount="0" stopTime="0.00" timeLoss="5.37" rerouteNo="0" devices="tripinfo_flow_9.1 routing_flow_9.1" vType="DEFAULT_VEHTYPE" speedFactor="0.93" vaporized=""/>
    <tripinfo id="flow_1.3" depart="21.00" departLane="gneE0_0" departPos="5.10" departSpeed="0.00" departDelay="3.00" arrival="39.00" arrivalLane="gneE1_1" arrivalPos="86.40" arrivalSpeed="13.07" duration="18.00" routeLength="194.90" waitingTime="0.00" waitingCount="0" stopTime="0.00" timeLoss="3.73" rerouteNo="0" devices="tripinfo_flow_1.3 routing_flow_1.3" vType="DEFAULT_VEHTYPE" speedFactor="1.01" vaporized=""/>
    <tripinfo id="flow_3.1" depart="18.00" departLane="gneE2_0" departPos="5.10" departSpeed="0.00" departDelay="0.00" arrival="39.00" arrivalLane="gneE1_0" arrivalPos="86.40" arrivalSpeed="11.54" duration="21.00" routeLength="176.73" waitingTime="0.00" waitingCount="0" stopTime="0.00" timeLoss="5.33" rerouteNo="0" devices="tripinfo_flow_3.1 routing_flow_3.1" vType="DEFAULT_VEHTYPE" speedFactor="0.89" vaporized=""/>
    <tripinfo id="flow_2.1" depart="23.00" departLane="gneE0_0" departPos="5.10" departSpeed="0.00" departDelay="5.00" arrival="43.00" arrivalLane="gneE3_2" arrivalPos="86.40" arrivalSpeed="13.48" duration="20.00" routeLength="192.21" waitingTime="0.00" waitingCount="0" stopTime="0.00" timeLoss="5.13" rerouteNo="0" devices="tripinfo_flow_2.1 routing_flow_2.1" vType="DEFAULT_VEHTYPE" speedFactor="0.98" vaporized=""/>
    <tripinfo id="flow_1.4" depart="24.00" departLane="gneE0_0" departPos="5.10" departSpeed="0.00" departDelay="0.00" arrival="44.00" arrivalLane="gneE1_1" arrivalPos="86.40" arrivalSpeed="12.80" duration="20.00" routeLength="194.90" waitingTime="0.00" waitingCount="0" stopTime="0.00" timeLoss="5.15" rerouteNo="0" devices="tripinfo_flow_1.4 routing_flow_1.4" vType="DEFAULT_VEHTYPE" speedFactor="1.01" vaporized=""/>
    <tripinfo id="flow_1.5" depart="30.00" departLane="gneE0_0" departPos="5.10" departSpeed="0.00" departDelay="0.00" arrival="48.00" arrivalLane="gneE1_1" arrivalPos="86.40" arrivalSpeed="12.62" duration="18.00" routeLength="194.90" waitingTime="0.00" waitingCount="0" stopTime="0.00" timeLoss="3.48" rerouteNo="0" devices="tripinfo_flow_1.5 routing_flow_1.5" vType="DEFAULT_VEHTYPE" speedFactor="0.97" vaporized=""/>
    <tripinfo id="flow_0.2" depart="36.00" departLane="gneE0_0" departPos="5.10" departSpeed="0.00" departDelay="0.00" arrival="54.00" arrivalLane="-gneE2_0" arrivalPos="86.40" arrivalSpeed="13.74" duration="18.00" routeLength="176.73" waitingTime="0.00" waitingCount="0" stopTime="0.00" timeLoss="5.02" rerouteNo="0" devices="tripinfo_flow_0.2 routing_flow_0.2" vType="DEFAULT_VEHTYPE" speedFactor="1.03" vaporized=""/>
    <tripinfo id="flow_4.0" depart="3.00" departLane="gneE2_0" departPos="5.10" departSpeed="0.00" departDelay="3.00" arrival="55.00" arrivalLane="gneE3_1" arrivalPos="86.40" arrivalSpeed="13.51" duration="52.00" routeLength="194.90" waitingTime="29.00" waitingCount="1" stopTime="0.00" timeLoss="38.30" rerouteNo="0" devices="tripinfo_flow_4.0 routing_flow_4.0" vType="DEFAULT_VEHTYPE" speedFactor="1.03" vaporized=""/>
    <tripinfo id="flow_3.2" depart="36.00" departLane="gneE2_0" departPos="5.10" departSpeed="0.00" departDelay="0.00" arrival="55.00" arrivalLane="gneE1_0" arrivalPos="86.40" arrivalSpeed="13.31" duration="19.00" routeLength="176.73" waitingTime="0.00" waitingCount="0" stopTime="0.00" timeLoss="5.62" rerouteNo="0" devices="tripinfo_flow_3.2 routing_flow_3.2" vType="DEFAULT_VEHTYPE" speedFactor="1.04" vaporized=""/>
    <tripinfo id="flow_6.2" depart="36.00" departLane="-gneE1_0" departPos="5.10" departSpeed="0.00" departDelay="0.00" arrival="56.00" arrivalLane="gneE3_0" arrivalPos="86.40" arrivalSpeed="12.62" duration="20.00" routeLength="176.73" waitingTime="0.00" waitingCount="0" stopTime="0.00" timeLoss="6.03" rerouteNo="0" devices="tripinfo_flow_6.2 routing_flow_6.2" vType="DEFAULT_VEHTYPE" speedFactor="1.00" vaporized=""/>
    <tripinfo id="flow_5.0" depart="5.00" departLane="gneE2_0" departPos="5.10" departSpeed="0.00" departDelay="5.00" arrival="57.00" arrivalLane="-gneE0_2" arrivalPos="86.40" arrivalSpeed="11.14" duration="52.00" routeLength="192.21" waitingTime="26.00" waitingCount="1" stopTime="0.00" timeLoss="34.47" rerouteNo="0" devices="tripinfo_flow_5.0 routing_flow_5.0" vType="DEFAULT_VEHTYPE" speedFactor="0.83" vaporized=""/>
    <tripinfo id="flow_4.1" depart="6.00" departLane="gneE2_0" departPos="5.10" departSpeed="0.00" departDelay="0.00" arrival="57.00" arrivalLane="gneE3_1" arrivalPos="86.40" arrivalSpeed="15.07" duration="51.00" routeLength="194.90" waitingTime="29.00" waitingCount="1" stopTime="0.00" timeLoss="38.48" rerouteNo="0" devices="tripinfo_flow_4.1 routing_flow_4.1" vType="DEFAULT_VEHTYPE" speedFactor="1.12" vaporized=""/>
    <tripinfo id="flow_9.2" depart="36.00" departLane="-gneE3_0" departPos="5.10" departSpeed="0.00" departDelay="0.00" arrival="57.00" arrivalLane="-gneE0_0" arrivalPos="86.40" arrivalSpeed="11.34" duration="21.00" routeLength="176.73" waitingTime="0.00" waitingCount="0" stopTime="0.00" timeLoss="4.89" rerouteNo="0" devices="tripinfo_flow_9.2 routing_flow_9.2" vType="DEFAULT_VEHTYPE" speedFactor="0.85" vaporized=""/>
    <tripinfo id="flow_4.2" depart="12.00" departLane="gneE2_0" departPos="5.10" departSpeed="0.00" departDelay="0.00" arrival="58.00" arrivalLane="gneE3_2" arrivalPos="86.40" arrivalSpeed="13.05" duration="46.00" routeLength="194.90" waitingTime="21.00" waitingCount="1" stopTime="0.00" timeLoss="31.04" rerouteNo="0" devices="tripinfo_flow_4.2 routing_flow_4.2" vType="DEFAULT_VEHTYPE" speedFactor="0.94" vaporized=""/>
    <tripinfo id="flow_4.3" depart="21.00" departLane="gneE2_0" departPos="5.10" departSpeed="0.00" departDelay="3.00" arrival="61.00" arrivalLane="gneE3_1" arrivalPos="86.40" arrivalSpeed="11.01" duration="40.00" routeLength="194.90" waitingTime="14.00" waitingCount="1" stopTime="0.00" timeLoss="22.80" rerouteNo="0" devices="tripinfo_flow_4.3 routing_flow_4.3" vType="DEFAULT_VEHTYPE" speedFactor="0.83" vaporized=""/>
    <tripinfo id="flow_5.1" depart="23.00" departLane="gneE2_0" departPos="5.10" departSpeed="0.00" departDelay="5.00" arrival="62.00" arrivalLane="-gneE0_2" arrivalPos="86.40" arrivalSpeed="11.06" duration="39.00" routeLength="192.21" waitingTime="10.00" waitingCount="1" stopTime="0.00" timeLoss="21.69" rerouteNo="0" devices="tripinfo_flow_5.1 routing_flow_5.1" vType="DEFAULT_VEHTYPE" speedFactor="0.87" vaporized=""/>
    <tripinfo id="flow_4.5" depart="30.00" departLane="gneE2_0" departPos="5.10" departSpeed="0.00" departDelay="0.00" arrival="62.00" arrivalLane="gneE3_2" arrivalPos="86.40" arrivalSpeed="15.09" duration="32.00" routeLength="194.90" waitingTime="5.00" waitingCount="1" stopTime="0.00" timeLoss="19.29" rerouteNo="0" devices="tripinfo_flow_4.5 routing_flow_4.5" vType="DEFAULT_VEHTYPE" speedFactor="1.18" vaporized=""/>
    <tripinfo id="flow_4.4" depart="24.00" departLane="gneE2_0" departPos="5.10" departSpeed="0.00" departDelay="0.00" arrival="63.00" arrivalLane="gneE3_1" arrivalPos="86.40" arrivalSpeed="15.46" duration="39.00" routeLength="194.90" waitingTime="12.00" waitingCount="1" stopTime="0.00" timeLoss="26.32" rerouteNo="0" devices="tripinfo_flow_4.4 routing_flow_4.4" vType="DEFAULT_VEHTYPE" speedFactor="1.17" vaporized=""/>
    <tripinfo id="flow_4.6" depart="39.00" departLane="gneE2_0" departPos="5.10" departSpeed="0.00" departDelay="3.00" arrival="64.00" arrivalLane="gneE3_1" arrivalPos="86.40" arrivalSpeed="13.88" duration="25.00" routeLength="194.90" waitingTime="0.00" waitingCount="0" stopTime="0.00" timeLoss="11.50" rerouteNo="0" devices="tripinfo_flow_4.6 routing_flow_4.6" vType="DEFAULT_VEHTYPE" speedFactor="1.04" vaporized=""/>
    <tripinfo id="flow_5.2" depart="40.00" departLane="gneE2_0" departPos="5.10" departSpeed="0.00" departDelay="4.00" arrival="65.00" arrivalLane="-gneE0_2" arrivalPos="86.40" arrivalSpeed="14.31" duration="25.00" routeLength="192.21" waitingTime="0.00" waitingCount="0" stopTime="0.00" timeLoss="11.10" rerouteNo="0" devices="tripinfo_flow_5.2 routing_flow_5.2" vType="DEFAULT_VEHTYPE" speedFactor="1.09" vaporized=""/>
    <tripinfo id="flow_4.7" depart="42.00" departLane="gneE2_0" departPos="5.10" departSpeed="0.00" departDelay="0.00" arrival="66.00" arrivalLane="gneE3_1" arrivalPos="86.40" arrivalSpeed="14.26" duration="24.00" routeLength="194.90" waitingTime="1.00" waitingCount="1" stopTime="0.00" timeLoss="10.74" rerouteNo="0" devices="tripinfo_flow_4.7 routing_flow_4.7" vType="DEFAULT_VEHTYPE" speedFactor="1.10" vaporized=""/>
    <tripinfo id="flow_4.8" depart="48.00" departLane="gneE2_0" departPos="5.10" departSpeed="0.00" departDelay="0.00" arrival="66.00" arrivalLane="gneE3_2" arrivalPos="86.40" arrivalSpeed="15.32" duration="18.00" routeLength="194.90" waitingTime="0.00" waitingCount="0" stopTime="0.00" timeLoss="5.12" rerouteNo="0" devices="tripinfo_flow_4.8 routing_flow_4.8" vType="DEFAULT_VEHTYPE" speedFactor="1.14" vaporized=""/>
    <tripinfo id="flow_0.3" depart="54.00" departLane="gneE0_0" departPos="5.10" departSpeed="0.00" departDelay="0.00" arrival="72.00" arrivalLane="-gneE2_0" arrivalPos="86.40" arrivalSpeed="13.90" duration="18.00" routeLength="176.73" waitingTime="0.00" waitingCount="0" stopTime="0.00" timeLoss="5.70" rerouteNo="0" devices="tripinfo_flow_0.3 routing_flow_0.3" vType="DEFAULT_VEHTYPE" speedFactor="1.08" vaporized=""/>
    <tripinfo id="flow_9.3" depart="54.00" departLane="-gneE3_0" departPos="5.10" departSpeed="0.00" departDelay="0.00" arrival="72.00" arrivalLane="-gneE0_0" arrivalPos="86.40" arrivalSpeed="13.96" duration="18.00" routeLength="176.73" waitingTime="0.00" waitingCount="0" stopTime="0.00" timeLoss="5.01" rerouteNo="0" devices="tripinfo_flow_9.3 routing_flow_9.3" vType="DEFAULT_VEHTYPE" speedFactor="1.02" vaporized=""/>
    <tripinfo id="flow_3.3" depart="54.00" departLane="gneE2_0" departPos="5.10" departSpeed="0.00" departDelay="0.00" arrival="73.00" arrivalLane="gneE1_0" arrivalPos="86.40" arrivalSpeed="13.46" duration="19.00" routeLength="176.73" waitingTime="0.00" waitingCount="0" stopTime="0.00" timeLoss="5.04" rerouteNo="0" devices="tripinfo_flow_3.3 routing_flow_3.3" vType="DEFAULT_VEHTYPE" speedFactor="0.99" vaporized=""/>
    <tripinfo id="flow_6.3" depart="54.00" departLane="-gneE1_0" departPos="5.10" departSpeed="0.00" departDelay="0.00" arrival="73.00" arrivalLane="gneE3_0" arrivalPos="86.40" arrivalSpeed="12.37" duration="19.00" routeLength="176.73" waitingTime="0.00" waitingCount="0" stopTime="0.00" timeLoss="4.39" rerouteNo="0" devices="tripinfo_flow_6.3 routing_flow_6.3" vType="DEFAULT_VEHTYPE" speedFactor="0.91" vaporized=""/>
    <tripinfo id="flow_4.9" depart="57.00" departLane="gneE2_0" departPos="5.10" departSpeed="0.00" departDelay="3.00" arrival="76.00" arrivalLane="gneE3_1" arrivalPos="86.40" arrivalSpeed="12.46" duration="19.00" routeLength="194.90" waitingTime="0.00" waitingCount="0" stopTime="0.00" timeLoss="3.31" rerouteNo="0" devices="tripinfo_flow_4.9 routing_flow_4.9" vType="DEFAULT_VEHTYPE" speedFactor="0.94" vaporized=""/>
    <tripinfo id="flow_4.10" depart="60.00" departLane="gneE2_0" departPos="5.10" departSpeed="0.00" departDelay="0.00" arrival="79.00" arrivalLane="gneE3_1" arrivalPos="86.40" arrivalSpeed="14.17" duration="19.00" routeLength="194.90" waitingTime="0.00" waitingCount="0" stopTime="0.00" timeLoss="5.38" rerouteNo="0" devices="tripinfo_flow_4.10 routing_flow_4.10" vType="DEFAULT_VEHTYPE" speedFactor="1.06" vaporized=""/>
    <tripinfo id="flow_5.3" depart="58.00" departLane="gneE2_0" departPos="5.10" departSpeed="0.00" departDelay="4.00" arrival="81.00" arrivalLane="-gneE0_2" arrivalPos="86.40" arrivalSpeed="11.89" duration="23.00" routeLength="192.21" waitingTime="0.00" waitingCount="0" stopTime="0.00" timeLoss="6.58" rerouteNo="0" devices="tripinfo_flow_5.3 routing_flow_5.3" vType="DEFAULT_VEHTYPE" speedFactor="0.88" vaporized=""/>
    <tripinfo id="flow_4.11" depart="66.00" departLane="gneE2_0" departPos="5.10" departSpeed="0.00" departDelay="0.00" arrival="84.00" arrivalLane="gneE3_1" arrivalPos="86.40" arrivalSpeed="13.51" duration="18.00" routeLength="194.90" waitingTime="0.00" waitingCount="0" stopTime="0.00" timeLoss="3.60" rerouteNo="0" devices="tripinfo_flow_4.11 routing_flow_4.11" vType="DEFAULT_VEHTYPE" speedFactor="0.98" vaporized=""/>
    <tripinfo id="flow_9.4" depart="72.00" departLane="-gneE3_0" departPos="5.10" departSpeed="0.00" departDelay="0.00" arrival="90.00" arrivalLane="-gneE0_0" arrivalPos="86.40" arrivalSpeed="13.01" duration="18.00" routeLength="176.73" waitingTime="0.00" waitingCount="0" stopTime="0.00" timeLoss="4.85" rerouteNo="0" devices="tripinfo_flow_9.4 routing_flow_9.4" vType="DEFAULT_VEHTYPE" speedFactor="1.02" vaporized=""/>
    <tripinfo id="flow_0.4" depart="72.00" departLane="gneE0_0" departPos="5.10" departSpeed="0.00" departDelay="0.00" arrival="91.00" arrivalLane="-gneE2_0" arrivalPos="86.40" arrivalSpeed="13.37" duration="19.00" routeLength="176.73" waitingTime="0.00" waitingCount="0" stopTime="0.00" timeLoss="5.37" rerouteNo="0" devices="tripinfo_flow_0.4 routing_flow_0.4" vType="DEFAULT_VEHTYPE" speedFactor="1.03" vaporized=""/>
    <tripinfo id="flow_3.4" depart="72.00" departLane="gneE2_0" departPos="5.10" departSpeed="0.00" departDelay="0.00" arrival="91.00" arrivalLane="gneE1_0" arrivalPos="86.40" arrivalSpeed="13.39" duration="19.00" routeLength="176.73" waitingTime="0.00" waitingCount="0" stopTime="0.00" timeLoss="4.74" rerouteNo="0" devices="tripinfo_flow_3.4 routing_flow_3.4" vType="DEFAULT_VEHTYPE" speedFactor="0.97" vaporized=""/>
    <tripinfo id="flow_4.12" depart="75.00" departLane="gneE2_0" departPos="5.10" departSpeed="0.00" departDelay="3.00" arrival="91.00" arrivalLane="gneE3_1" arrivalPos="86.40" arrivalSpeed="15.53" duration="16.00" routeLength="194.90" waitingTime="0.00" waitingCount="0" stopTime="0.00" timeLoss="3.26" rerouteNo="0" devices="tripinfo_flow_4.12 routing_flow_4.12" vType="DEFAULT_VEHTYPE" speedFactor="1.15" vaporized=""/>
    <tripinfo id="flow_6.4" depart="72.00" departLane="-gneE1_0" departPos="5.10" departSpeed="0.00" departDelay="0.00" arrival="92.00" arrivalLane="gneE3_0" arrivalPos="86.40" arrivalSpeed="12.96" duration="20.00" routeLength="176.73" waitingTime="0.00" waitingCount="0" stopTime="0.00" timeLoss="6.17" rerouteNo="0" devices="tripinfo_flow_6.4 routing_flow_6.4" vType="DEFAULT_VEHTYPE" speedFactor="1.00" vaporized=""/>
    <tripinfo id="flow_8.0" depart="5.00" departLane="-gneE1_0" departPos="5.10" departSpeed="0.00" departDelay="5.00" arrival="101.00" arrivalLane="-gneE2_2" arrivalPos="86.40" arrivalSpeed="11.80" duration="96.00" routeLength="192.21" waitingTime="71.00" waitingCount="1" stopTime="0.00" timeLoss="80.30" rerouteNo="0" devices="tripinfo_flow_8.0 routing_flow_8.0" vType="DEFAULT_VEHTYPE" speedFactor="0.94" vaporized=""/>
    <tripinfo id="flow_7.0" depart="3.00" departLane="-gneE1_0" departPos="5.10" departSpeed="0.00" departDelay="3.00" arrival="102.00" arrivalLane="-gneE0_1" arrivalPos="86.40" arrivalSpeed="11.91" duration="99.00" routeLength="194.90" waitingTime="75.00" waitingCount="1" stopTime="0.00" timeLoss="82.41" rerouteNo="0" devices="tripinfo_flow_7.0 routing_flow_7.0" vType="DEFAULT_VEHTYPE" speedFactor="0.89" vaporized=""/>
    <tripinfo id="flow_7.1" depart="7.00" departLane="-gneE1_0" departPos="5.10" departSpeed="0.00" departDelay="1.00" arrival="103.00" arrivalLane="-gneE0_1" arrivalPos="86.40" arrivalSpeed="12.53" duration="96.00" routeLength="194.90" waitingTime="71.00" waitingCount="1" stopTime="0.00" timeLoss="81.79" rerouteNo="0" devices="tripinfo_flow_7.1 routing_flow_7.1" vType="DEFAULT_VEHTYPE" speedFactor="0.99" vaporized=""/>
    <tripinfo id="flow_7.2" depart="12.00" departLane="-gneE1_0" departPos="5.10" departSpeed="0.00" departDelay="0.00" arrival="103.00" arrivalLane="-gneE0_2" arrivalPos="86.40" arrivalSpeed="12.53" duration="91.00" routeLength="194.90" waitingTime="68.00" waitingCount="1" stopTime="0.00" timeLoss="75.78" rerouteNo="0" devices="tripinfo_flow_7.2 routing_flow_7.2" vType="DEFAULT_VEHTYPE" speedFactor="0.94" vaporized=""/>
    <tripinfo id="flow_8.1" depart="23.00" departLane="-gneE1_0" departPos="5.10" departSpeed="0.00" departDelay="5.00" arrival="104.00" arrivalLane="-gneE2_2" arrivalPos="86.40" arrivalSpeed="15.18" duration="81.00" routeLength="192.21" waitingTime="57.00" waitingCount="1" stopTime="0.00" timeLoss="68.05" rerouteNo="0" devices="tripinfo_flow_8.1 routing_flow_8.1" vType="DEFAULT_VEHTYPE" speedFactor="1.13" vaporized=""/>
    <tripinfo id="flow_7.3" depart="21.00" departLane="-gneE1_0" departPos="5.10" departSpeed="0.00" departDelay="3.00" arrival="106.00" arrivalLane="-gneE0_1" arrivalPos="86.40" arrivalSpeed="12.77" duration="85.00" routeLength="194.90" waitingTime="61.00" waitingCount="1" stopTime="0.00" timeLoss="69.29" rerouteNo="0" devices="tripinfo_flow_7.3 routing_flow_7.3" vType="DEFAULT_VEHTYPE" speedFactor="0.95" vaporized=""/>
    <tripinfo id="flow_7.5" depart="30.00" departLane="-gneE1_0" departPos="5.10" departSpeed="0.00" departDelay="0.00" arrival="106.00" arrivalLane="-gneE0_2" arrivalPos="86.40" arrivalSpeed="14.96" duration="76.00" routeLength="194.90" waitingTime="52.00" waitingCount="1" stopTime="0.00" timeLoss="62.89" rerouteNo="0" devices="tripinfo_flow_7.5 routing_flow_7.5" vType="DEFAULT_VEHTYPE" speedFactor="1.10" vaporized=""/>
    <tripinfo id="flow_7.4" depart="24.00" departLane="-gneE1_0" departPos="5.10" departSpeed="0.00" departDelay="0.00" arrival="107.00" arrivalLane="-gneE0_1" arrivalPos="86.40" arrivalSpeed="13.06" duration="83.00" routeLength="194.90" waitingTime="59.00" waitingCount="1" stopTime="0.00" timeLoss="68.63" rerouteNo="0" devices="tripinfo_flow_7.4 routing_flow_7.4" vType="DEFAULT_VEHTYPE" speedFactor="0.99" vaporized=""/>
    <tripinfo id="flow_0.5" depart="90.00" departLane="gneE0_0" departPos="5.10" departSpeed="0.00" departDelay="0.00" arrival="109.00" arrivalLane="-gneE2_0" arrivalPos="86.40" arrivalSpeed="14.28" duration="19.00" routeLength="176.73" waitingTime="0.00" waitingCount="0" stopTime="0.00" timeLoss="5.79" rerouteNo="0" devices="tripinfo_flow_0.5 routing_flow_0.5" vType="DEFAULT_VEHTYPE" speedFactor="1.07" vaporized=""/>
    <tripinfo id="flow_6.5" depart="90.00" departLane="-gneE1_0" departPos="5.10" departSpeed="0.00" departDelay="0.00" arrival="109.00" arrivalLane="gneE3_0" arrivalPos="86.40" arrivalSpeed="13.87" duration="19.00" routeLength="176.73" waitingTime="0.00" waitingCount="0" stopTime="0.00" timeLoss="5.08" rerouteNo="0" devices="tripinfo_flow_6.5 routing_flow_6.5" vType="DEFAULT_VEHTYPE" speedFactor="1.01" vaporized=""/>
    <tripinfo id="flow_7.6" depart="39.00" departLane="-gneE1_0" departPos="5.10" departSpeed="0.00" departDelay="3.00" arrival="110.00" arrivalLane="-gneE0_1" arrivalPos="86.40" arrivalSpeed="11.74" duration="71.00" routeLength="194.90" waitingTime="43.00" waitingCount="1" stopTime="0.00" timeLoss="54.61" rerouteNo="0" devices="tripinfo_flow_7.6 routing_flow_7.6" vType="DEFAULT_VEHTYPE" speedFactor="0.90" vaporized=""/>
    <tripinfo id="flow_3.5" depart="90.00" departLane="gneE2_0" departPos="5.10" departSpeed="0.00" departDelay="0.00" arrival="110.00" arrivalLane="gneE1_0" arrivalPos="86.40" arrivalSpeed="12.99" duration="20.00" routeLength="176.73" waitingTime="0.00" waitingCount="0" stopTime="0.00" timeLoss="5.68" rerouteNo="0" devices="tripinfo_flow_3.5 routing_flow_3.5" vType="DEFAULT_VEHTYPE" speedFactor="0.95" vaporized=""/>
    <tripinfo id="flow_9.5" depart="90.00" departLane="-gneE3_0" departPos="5.10" departSpeed="0.00" departDelay="0.00" arrival="110.00" arrivalLane="-gneE0_0" arrivalPos="86.40" arrivalSpeed="13.11" duration="20.00" routeLength="176.73" waitingTime="0.00" waitingCount="0" stopTime="0.00" timeLoss="5.16" rerouteNo="0" devices="tripinfo_flow_9.5 routing_flow_9.5" vType="DEFAULT_VEHTYPE" speedFactor="0.96" vaporized=""/>
    <tripinfo id="flow_8.2" depart="41.00" departLane="-gneE1_0" departPos="5.10" departSpeed="0.00" departDelay="5.00" arrival="111.00" arrivalLane="-gneE2_2" arrivalPos="86.40" arrivalSpeed="11.51" duration="70.00" routeLength="192.21" waitingTime="43.00" waitingCount="2" stopTime="0.00" timeLoss="53.54" rerouteNo="0" devices="tripinfo_flow_8.2 routing_flow_8.2" vType="DEFAULT_VEHTYPE" speedFactor="0.88" vaporized=""/>
    <tripinfo id="flow_7.7" depart="43.00" departLane="-gneE1_0" departPos="5.10" departSpeed="0.00" departDelay="1.00" arrival="111.00" arrivalLane="-gneE0_1" arrivalPos="86.40" arrivalSpeed="12.95" duration="68.00" routeLength="194.90" waitingTime="41.00" waitingCount="2" stopTime="0.00" timeLoss="53.83" rerouteNo="0" devices="tripinfo_flow_7.7 routing_flow_7.7" vType="DEFAULT_VEHTYPE" speedFactor="1.00" vaporized=""/>
    <tripinfo id="flow_7.8" depart="48.00" departLane="-gneE1_0" departPos="5.10" departSpeed="0.00" departDelay="0.00" arrival="112.00" arrivalLane="-gneE0_2" arrivalPos="86.40" arrivalSpeed="13.90" duration="64.00" routeLength="194.90" waitingTime="39.00" waitingCount="1" stopTime="0.00" timeLoss="49.70" rerouteNo="0" devices="tripinfo_flow_7.8 routing_flow_7.8" vType="DEFAULT_VEHTYPE" speedFactor="1.02" vaporized=""/>
    <tripinfo id="flow_7.9" depart="57.00" departLane="-gneE1_0" departPos="5.10" departSpeed="0.00" departDelay="3.00" arrival="113.00" arrivalLane="-gneE0_1" arrivalPos="86.40" arrivalSpeed="11.93" duration="56.00" routeLength="194.90" waitingTime="30.00" waitingCount="1" stopTime="0.00" timeLoss="40.46" rerouteNo="0" devices="tripinfo_flow_7.9 routing_flow_7.9" vType="DEFAULT_VEHTYPE" speedFactor="0.91" vaporized=""/>
    <tripinfo id="flow_8.3" depart="58.00" departLane="-gneE1_0" departPos="5.10" departSpeed="0.00" departDelay="4.00" arrival="115.00" arrivalLane="-gneE2_2" arrivalPos="86.40" arrivalSpeed="13.50" duration="57.00" routeLength="192.21" waitingTime="28.00" waitingCount="2" stopTime="0.00" timeLoss="43.05" rerouteNo="0" devices="tripinfo_flow_8.3 routing_flow_8.3" vType="DEFAULT_VEHTYPE" speedFactor="1.04" vaporized=""/>
    <tripinfo id="flow_7.10" depart="60.00" departLane="-gneE1_0" departPos="5.10" departSpeed="0.00" departDelay="0.00" arrival="115.00" arrivalLane="-gneE0_1" arrivalPos="86.40" arrivalSpeed="12.68" duration="55.00" routeLength="194.90" waitingTime="29.00" waitingCount="1" stopTime="0.00" timeLoss="39.86" rerouteNo="0" devices="tripinfo_flow_7.10 routing_flow_7.10" vType="DEFAULT_VEHTYPE" speedFactor="0.96" vaporized=""/>
    <tripinfo id="flow_7.11" depart="66.00" departLane="-gneE1_0" departPos="5.10" departSpeed="0.00" departDelay="0.00" arrival="117.00" arrivalLane="-gneE0_2" arrivalPos="86.40" arrivalSpeed="13.67" duration="51.00" routeLength="194.90" waitingTime="23.00" waitingCount="1" stopTime="0.00" timeLoss="36.90" rerouteNo="0" devices="tripinfo_flow_7.11 routing_flow_7.11" vType="DEFAULT_VEHTYPE" speedFactor="1.01" vaporized=""/>
    <tripinfo id="flow_7.12" depart="75.00" departLane="-gneE1_0" departPos="5.10" departSpeed="0.00" departDelay="3.00" arrival="117.00" arrivalLane="-gneE0_1" arrivalPos="86.40" arrivalSpeed="13.65" duration="42.00" routeLength="194.90" waitingTime="17.00" waitingCount="1" stopTime="0.00" timeLoss="27.77" rerouteNo="0" devices="tripinfo_flow_7.12 routing_flow_7.12" vType="DEFAULT_VEHTYPE" speedFactor="1.04" vaporized=""/>
    <tripinfo id="flow_7.13" depart="78.00" departLane="-gneE1_0" departPos="5.10" departSpeed="0.00" departDelay="0.00" arrival="118.00" arrivalLane="-gneE0_1" arrivalPos="86.40" arrivalSpeed="14.81" duration="40.00" routeLength="194.90" waitingTime="13.00" waitingCount="1" stopTime="0.00" timeLoss="26.97" rerouteNo="0" devices="tripinfo_flow_7.13 routing_flow_7.13" vType="DEFAULT_VEHTYPE" speedFactor="1.09" vaporized=""/>
    <tripinfo id="flow_7.16" depart="103.00" departLane="-gneE1_0" departPos="5.10" departSpeed="0.00" departDelay="7.00" arrival="120.00" arrivalLane="-gneE0_1" arrivalPos="86.40" arrivalSpeed="14.02" duration="17.00" routeLength="194.90" waitingTime="0.00" waitingCount="0" stopTime="0.00" timeLoss="4.05" rerouteNo="0" devices="tripinfo_flow_7.16 routing_flow_7.16" vType="DEFAULT_VEHTYPE" speedFactor="1.10" vaporized=""/>
    <tripinfo id="flow_8.4" depart="76.00" departLane="-gneE1_0" departPos="5.10" departSpeed="0.00" departDelay="4.00" arrival="121.00" arrivalLane="-gneE2_2" arrivalPos="86.40" arrivalSpeed="13.47" duration="45.00" routeLength="192.21" waitingTime="16.00" waitingCount="2" stopTime="0.00" timeLoss="30.10" rerouteNo="0" devices="tripinfo_flow_8.4 routing_flow_8.4" vType="DEFAULT_VEHTYPE" speedFactor="1.01" vaporized=""/>