<?xml version="1.0" encoding="UTF-8"?>

<!-- generated on 2022-05-08 14:11:26 by Eclipse SUMO GUI Version 1.10.0
<configuration xmlns:xsi="http://www.w3.org/2001/XMLSchema-instance" xsi:noNamespaceSchemaLocation="http://sumo.dlr.de/xsd/sumoConfiguration.xsd">

    <input>
        <net-file value="map.net.xml"/>
        <route-files value="routes.rou.xml"/>
    </input>

    <output>
        <tripinfo-output value="tripinfo.xml"/>
    </output>

    <time>
        <begin value="0"/>
        <end value="3600"/>
    </time>

    <traci_server>
        <remote-port value="59733"/>
    </traci_server>

</configuration>
-->

<tripinfos xmlns:xsi="http://www.w3.org/2001/XMLSchema-instance" xsi:noNamespaceSchemaLocation="http://sumo.dlr.de/xsd/tripinfo_file.xsd">
    <tripinfo id="flow_10.0" depart="0.00" departLane="-gneE11_0" departPos="5.10" departSpeed="0.00" departDelay="0.00" arrival="33.00" arrivalLane="-gneE9_0" arrivalPos="183.20" arrivalSpeed="13.99" duration="33.00" routeLength="370.33" waitingTime="0.00" waitingCount="0" stopTime="0.00" timeLoss="7.47" rerouteNo="0" devices="tripinfo_flow_10.0 routing_flow_10.0" vType="DEFAULT_VEHTYPE" speedFactor="1.09" vaporized=""/>
    <tripinfo id="flow_30.0" depart="2.00" departLane="-gneE17_0" departPos="5.10" departSpeed="0.00" departDelay="2.00" arrival="33.00" arrivalLane="gneE16_0" arrivalPos="183.20" arrivalSpeed="15.16" duration="31.00" routeLength="376.73" waitingTime="0.00" waitingCount="0" stopTime="0.00" timeLoss="6.95" rerouteNo="0" devices="tripinfo_flow_30.0 routing_flow_30.0" vType="DEFAULT_VEHTYPE" speedFactor="1.18" vaporized=""/>
    <tripinfo id="flow_0.0" depart="0.00" departLane="gneE9_0" departPos="5.10" departSpeed="0.00" departDelay="0.00" arrival="34.00" arrivalLane="gneE10_0" arrivalPos="183.20" arrivalSpeed="13.80" duration="34.00" routeLength="370.33" waitingTime="0.00" waitingCount="0" stopTime="0.00" timeLoss="7.33" rerouteNo="0" devices="tripinfo_flow_0.0 routing_flow_0.0" vType="DEFAULT_VEHTYPE" speedFactor="1.06" vaporized=""/>
    <tripinfo id="flow_22.0" depart="0.00" departLane="-gneE15_0" departPos="5.10" departSpeed="0.00" departDelay="0.00" arrival="35.00" arrivalLane="gneE17_0" arrivalPos="189.60" arrivalSpeed="12.45" duration="35.00" routeLength="376.73" waitingTime="0.00" waitingCount="0" stopTime="0.00" timeLoss="6.53" rerouteNo="0" devices="tripinfo_flow_22.0 routing_flow_22.0" vType="DEFAULT_VEHTYPE" speedFactor="0.98" vaporized=""/>
    <tripinfo id="flow_6.0" depart="0.00" departLane="-gneE10_0" departPos="5.10" departSpeed="0.00" departDelay="0.00" arrival="50.00" arrivalLane="gneE14_0" arrivalPos="183.20" arrivalSpeed="14.09" duration="50.00" routeLength="552.16" waitingTime="0.00" waitingCount="0" stopTime="0.00" timeLoss="9.40" rerouteNo="0" devices="tripinfo_flow_6.0 routing_flow_6.0" vType="DEFAULT_VEHTYPE" speedFactor="1.05" vaporized=""/>
    <tripinfo id="flow_23.0" depart="3.00" departLane="-gneE15_0" departPos="5.10" departSpeed="0.00" departDelay="3.00" arrival="54.00" arrivalLane="gneE16_0" arrivalPos="183.20" arrivalSpeed="12.25" duration="51.00" routeLength="394.90" waitingTime="9.00" waitingCount="1" stopTime="0.00" timeLoss="18.09" rerouteNo="0" devices="tripinfo_flow_23.0 routing_flow_23.0" vType="DEFAULT_VEHTYPE" speedFactor="0.89" vaporized=""/>
    <tripinfo id="flow_28.0" depart="18.00" departLane="-gneE15_0" departPos="5.10" departSpeed="0.00" departDelay="18.00" arrival="55.00" arrivalLane="gneE16_0" arrivalPos="183.20" arrivalSpeed="12.44" duration="37.00" routeLength="394.90" waitingTime="0.00" waitingCount="0" stopTime="0.00" timeLoss="11.71" rerouteNo="0" devices="tripinfo_flow_28.0 routing_flow_28.0" vType="DEFAULT_VEHTYPE" speedFactor="1.13" vaporized=""/>
    <tripinfo id="flow_1.0" depart="3.00" departLane="gneE9_0" departPos="5.10" departSpeed="0.00" departDelay="3.00" arrival="56.00" arrivalLane="gneE14_0" arrivalPos="183.20" arrivalSpeed="12.98" duration="53.00" routeLength="576.73" waitingTime="0.00" waitingCount="0" stopTime="0.00" timeLoss="6.93" rerouteNo="0" devices="tripinfo_flow_1.0 routing_flow_1.0" vType="DEFAULT_VEHTYPE" speedFactor="0.94" vaporized=""/>
    <tripinfo id="flow_19.0" depart="9.00" departLane="-gneE14_0" departPos="5.10" departSpeed="0.00" departDelay="9.00" arrival="62.00" arrivalLane="gneE15_0" arrivalPos="183.20" arrivalSpeed="14.93" duration="53.00" routeLength="658.56" waitingTime="0.00" waitingCount="0" stopTime="0.00" timeLoss="10.79" rerouteNo="0" devices="tripinfo_flow_19.0 routing_flow_19.0" vType="DEFAULT_VEHTYPE" speedFactor="1.16" vaporized=""/>
    <tripinfo id="flow_0.1" depart="36.00" departLane="gneE9_0" departPos="5.10" departSpeed="0.00" departDelay="0.00" arrival="68.00" arrivalLane="gneE10_0" arrivalPos="183.20" arrivalSpeed="15.75" duration="32.00" routeLength="370.33" waitingTime="0.00" waitingCount="0" stopTime="0.00" timeLoss="7.32" rerouteNo="0" devices="tripinfo_flow_0.1 routing_flow_0.1" vType="DEFAULT_VEHTYPE" speedFactor="1.14" vaporized=""/>
    <tripinfo id="flow_30.1" depart="36.00" departLane="-gneE17_0" departPos="5.10" departSpeed="0.00" departDelay="2.04" arrival="69.00" arrivalLane="gneE16_0" arrivalPos="183.20" arrivalSpeed="14.94" duration="33.00" routeLength="376.73" waitingTime="0.00" waitingCount="0" stopTime="0.00" timeLoss="7.13" rerouteNo="0" devices="tripinfo_flow_30.1 routing_flow_30.1" vType="DEFAULT_VEHTYPE" speedFactor="1.09" vaporized=""/>
    <tripinfo id="flow_10.1" depart="35.00" departLane="-gneE11_0" departPos="5.10" departSpeed="0.00" departDelay="0.05" arrival="72.00" arrivalLane="-gneE9_0" arrivalPos="183.20" arrivalSpeed="12.26" duration="37.00" routeLength="370.33" waitingTime="0.00" waitingCount="0" stopTime="0.00" timeLoss="6.04" rerouteNo="0" devices="tripinfo_flow_10.1 routing_flow_10.1" vType="DEFAULT_VEHTYPE" speedFactor="0.90" vaporized=""/>
    <tripinfo id="flow_29.0" depart="0.00" departLane="-gneE17_0" departPos="5.10" departSpeed="0.00" departDelay="0.00" arrival="85.00" arrivalLane="gneE15_1" arrivalPos="183.20" arrivalSpeed="11.74" duration="85.00" routeLength="392.43" waitingTime="44.00" waitingCount="1" stopTime="0.00" timeLoss="53.78" rerouteNo="0" devices="tripinfo_flow_29.0 routing_flow_29.0" vType="DEFAULT_VEHTYPE" speedFactor="0.93" vaporized=""/>
    <tripinfo id="flow_29.1" depart="34.00" departLane="-gneE17_0" departPos="5.10" departSpeed="0.00" departDelay="0.04" arrival="87.00" arrivalLane="gneE15_1" arrivalPos="183.20" arrivalSpeed="13.88" duration="53.00" routeLength="392.43" waitingTime="14.00" waitingCount="1" stopTime="0.00" timeLoss="24.77" rerouteNo="0" devices="tripinfo_flow_29.1 routing_flow_29.1" vType="DEFAULT_VEHTYPE" speedFactor="1.04" vaporized=""/>
    <tripinfo id="flow_6.1" depart="36.00" departLane="-gneE10_0" departPos="5.10" departSpeed="0.00" departDelay="0.71" arrival="87.00" arrivalLane="gneE14_0" arrivalPos="183.20" arrivalSpeed="13.53" duration="51.00" routeLength="552.16" waitingTime="0.00" waitingCount="0" stopTime="0.00" timeLoss="8.77" rerouteNo="0" devices="tripinfo_flow_6.1 routing_flow_6.1" vType="DEFAULT_VEHTYPE" speedFactor="0.99" vaporized=""/>
    <tripinfo id="flow_17.0" depart="3.00" departLane="-gneE14_0" departPos="5.10" departSpeed="0.00" departDelay="3.00" arrival="89.00" arrivalLane="-gneE9_1" arrivalPos="183.20" arrivalSpeed="12.44" duration="86.00" routeLength="592.43" waitingTime="28.00" waitingCount="1" stopTime="0.00" timeLoss="39.44" rerouteNo="0" devices="tripinfo_flow_17.0 routing_flow_17.0" vType="DEFAULT_VEHTYPE" speedFactor="0.94" vaporized=""/>
    <tripinfo id="flow_16.0" depart="0.00" departLane="-gneE14_0" departPos="5.10" departSpeed="0.00" departDelay="0.00" arrival="90.00" arrivalLane="gneE11_0" arrivalPos="183.20" arrivalSpeed="11.39" duration="90.00" routeLength="567.86" waitingTime="29.00" waitingCount="1" stopTime="0.00" timeLoss="41.36" rerouteNo="0" devices="tripinfo_flow_16.0 routing_flow_16.0" vType="DEFAULT_VEHTYPE" speedFactor="0.88" vaporized=""/>
    <tripinfo id="flow_18.0" depart="6.00" departLane="-gneE14_0" departPos="5.10" departSpeed="0.00" departDelay="6.00" arrival="91.00" arrivalLane="gneE10_3" arrivalPos="183.20" arrivalSpeed="12.54" duration="85.00" routeLength="588.50" waitingTime="26.00" waitingCount="1" stopTime="0.00" timeLoss="38.77" rerouteNo="0" devices="tripinfo_flow_18.0 routing_flow_18.0" vType="DEFAULT_VEHTYPE" speedFactor="0.94" vaporized=""/>
    <tripinfo id="flow_22.1" depart="66.00" departLane="-gneE15_0" departPos="5.10" departSpeed="0.00" departDelay="0.55" arrival="102.00" arrivalLane="gneE17_0" arrivalPos="189.60" arrivalSpeed="12.72" duration="36.00" routeLength="376.73" waitingTime="0.00" waitingCount="0" stopTime="0.00" timeLoss="7.36" rerouteNo="0" devices="tripinfo_flow_22.1 routing_flow_22.1" vType="DEFAULT_VEHTYPE" speedFactor="0.97" vaporized=""/>
    <tripinfo id="flow_29.2" depart="68.00" departLane="-gneE17_0" departPos="5.10" departSpeed="0.00" departDelay="0.08" arrival="102.00" arrivalLane="gneE15_1" arrivalPos="183.20" arrivalSpeed="12.78" duration="34.00" routeLength="392.43" waitingTime="0.00" waitingCount="0" stopTime="0.00" timeLoss="4.74" rerouteNo="0" devices="tripinfo_flow_29.2 routing_flow_29.2" vType="DEFAULT_VEHTYPE" speedFactor="1.01" vaporized=""/>
    <tripinfo id="flow_30.2" depart="70.00" departLane="-gneE17_0" departPos="5.10" departSpeed="0.00" departDelay="2.08" arrival="104.00" arrivalLane="gneE16_0" arrivalPos="183.20" arrivalSpeed="13.70" duration="34.00" routeLength="376.73" waitingTime="0.00" waitingCount="0" stopTime="0.00" timeLoss="6.28" rerouteNo="0" devices="tripinfo_flow_30.2 routing_flow_30.2" vType="DEFAULT_VEHTYPE" speedFactor="1.02" vaporized=""/>
    <tripinfo id="flow_0.2" depart="72.00" departLane="gneE9_0" departPos="5.10" departSpeed="0.00" departDelay="0.00" arrival="105.00" arrivalLane="gneE10_0" arrivalPos="183.20" arrivalSpeed="14.53" duration="33.00" routeLength="370.33" waitingTime="0.00" waitingCount="0" stopTime="0.00" timeLoss="7.30" rerouteNo="0" devices="tripinfo_flow_0.2 routing_flow_0.2" vType="DEFAULT_VEHTYPE" speedFactor="1.07" vaporized=""/>
    <tripinfo id="flow_10.2" depart="73.00" departLane="-gneE11_0" departPos="5.10" departSpeed="0.00" departDelay="3.10" arrival="106.00" arrivalLane="-gneE9_0" arrivalPos="183.20" arrivalSpeed="14.47" duration="33.00" routeLength="370.33" waitingTime="0.00" waitingCount="0" stopTime="0.00" timeLoss="7.36" rerouteNo="0" devices="tripinfo_flow_10.2 routing_flow_10.2" vType="DEFAULT_VEHTYPE" speedFactor="1.07" vaporized=""/>
    <tripinfo id="flow_11.1" depart="18.00" departLane="-gneE11_0" departPos="5.10" departSpeed="0.00" departDelay="0.27" arrival="117.00" arrivalLane="gneE10_2" arrivalPos="183.20" arrivalSpeed="13.54" duration="99.00" routeLength="394.90" waitingTime="61.00" waitingCount="1" stopTime="0.00" timeLoss="71.27" rerouteNo="0" devices="tripinfo_flow_11.1 routing_flow_11.1" vType="DEFAULT_VEHTYPE" speedFactor="1.04" vaporized=""/>
    <tripinfo id="flow_11.0" depart="3.00" departLane="-gneE11_0" departPos="5.10" departSpeed="0.00" departDelay="3.00" arrival="118.00" arrivalLane="gneE10_1" arrivalPos="183.20" arrivalSpeed="13.76" duration="115.00" routeLength="394.90" waitingTime="76.00" waitingCount="1" stopTime="0.00" timeLoss="86.36" rerouteNo="0" devices="tripinfo_flow_11.0 routing_flow_11.0" vType="DEFAULT_VEHTYPE" speedFactor="1.03" vaporized=""/>
    <tripinfo id="flow_35.0" depart="0.00" departLane="-gneE16_0" departPos="5.10" departSpeed="0.00" departDelay="0.00" arrival="118.00" arrivalLane="gneE15_0" arrivalPos="183.20" arrivalSpeed="13.27" duration="118.00" routeLength="394.90" waitingTime="80.00" waitingCount="1" stopTime="0.00" timeLoss="89.43" rerouteNo="0" devices="tripinfo_flow_35.0 routing_flow_35.0" vType="DEFAULT_VEHTYPE" speedFactor="1.02" vaporized=""/>
    <tripinfo id="flow_36.0" depart="3.00" departLane="-gneE16_0" departPos="5.10" departSpeed="0.00" departDelay="3.00" arrival="118.00" arrivalLane="gneE17_3" arrivalPos="189.60" arrivalSpeed="13.11" duration="115.00" routeLength="392.43" waitingTime="76.00" waitingCount="1" stopTime="0.00" timeLoss="85.44" rerouteNo="0" devices="tripinfo_flow_36.0 routing_flow_36.0" vType="DEFAULT_VEHTYPE" speedFactor="0.97" vaporized=""/>
    <tripinfo id="flow_27.0" depart="15.00" departLane="-gneE15_0" departPos="5.10" departSpeed="0.00" departDelay="15.00" arrival="119.00" arrivalLane="gneE11_0" arrivalPos="183.20" arrivalSpeed="13.12" duration="104.00" routeLength="867.86" waitingTime="17.00" waitingCount="2" stopTime="0.00" timeLoss="37.22" rerouteNo="0" devices="tripinfo_flow_27.0 routing_flow_27.0" vType="DEFAULT_VEHTYPE" speedFactor="0.95" vaporized=""/>
    <tripinfo id="flow_11.3" depart="54.00" departLane="-gneE11_0" departPos="5.10" departSpeed="0.00" departDelay="0.80" arrival="119.00" arrivalLane="gneE10_2" arrivalPos="183.20" arrivalSpeed="14.19" duration="65.00" routeLength="394.90" waitingTime="25.00" waitingCount="1" stopTime="0.00" timeLoss="36.64" rerouteNo="0" devices="tripinfo_flow_11.3 routing_flow_11.3" vType="DEFAULT_VEHTYPE" speedFactor="1.02" vaporized=""/>
    <tripinfo id="flow_36.1" depart="37.00" departLane="-gneE16_0" departPos="5.10" departSpeed="0.00" departDelay="3.04" arrival="120.00" arrivalLane="gneE17_3" arrivalPos="189.60" arrivalSpeed="15.13" duration="83.00" routeLength="392.43" waitingTime="45.00" waitingCount="1" stopTime="0.00" timeLoss="57.89" rerouteNo="0" devices="tripinfo_flow_36.1 routing_flow_36.1" vType="DEFAULT_VEHTYPE" speedFactor="1.17" vaporized=""/>
    <tripinfo id="flow_11.2" depart="38.00" departLane="-gneE11_0" departPos="5.10" departSpeed="0.00" departDelay="2.53" arrival="121.00" arrivalLane="gneE10_1" arrivalPos="183.20" arrivalSpeed="11.73" duration="83.00" routeLength="394.90" waitingTime="42.00" waitingCount="1" stopTime="0.00" timeLoss="51.68" rerouteNo="0" devices="tripinfo_flow_11.2 routing_flow_11.2" vType="DEFAULT_VEHTYPE" speedFactor="0.91" vaporized=""/>
    <tripinfo id="flow_11.5" depart="89.00" departLane="-gneE11_0" departPos="5.10" departSpeed="0.00" departDelay="0.33" arrival="121.00" arrivalLane="gneE10_2" arrivalPos="183.20" arrivalSpeed="14.10" duration="32.00" routeLength="394.90" waitingTime="0.00" waitingCount="0" stopTime="0.00" timeLoss="5.26" rerouteNo="0" devices="tripinfo_flow_11.5 routing_flow_11.5" vType="DEFAULT_VEHTYPE" speedFactor="1.10" vaporized=""/>
    <tripinfo id="flow_35.1" depart="34.00" departLane="-gneE16_0" departPos="5.10" departSpeed="0.00" departDelay="0.04" arrival="124.00" arrivalLane="gneE15_1" arrivalPos="183.20" arrivalSpeed="10.87" duration="90.00" routeLength="394.90" waitingTime="44.00" waitingCount="1" stopTime="0.00" timeLoss="56.43" rerouteNo="0" devices="tripinfo_flow_35.1 routing_flow_35.1" vType="DEFAULT_VEHTYPE" speedFactor="0.85" vaporized=""/>
    <tripinfo id="flow_6.2" depart="71.00" departLane="-gneE10_0" departPos="5.10" departSpeed="0.00" departDelay="0.41" arrival="124.00" arrivalLane="gneE14_0" arrivalPos="183.20" arrivalSpeed="12.86" duration="53.00" routeLength="552.16" waitingTime="0.00" waitingCount="0" stopTime="0.00" timeLoss="9.52" rerouteNo="0" devices="tripinfo_flow_6.2 routing_flow_6.2" vType="DEFAULT_VEHTYPE" speedFactor="0.96" vaporized=""/>
    <tripinfo id="flow_11.4" depart="76.00" departLane="-gneE11_0" departPos="5.10" departSpeed="0.00" departDelay="5.06" arrival="124.00" arrivalLane="gneE10_1" arrivalPos="183.20" arrivalSpeed="11.84" duration="48.00" routeLength="394.90" waitingTime="5.00" waitingCount="1" stopTime="0.00" timeLoss="15.85" rerouteNo="0" devices="tripinfo_flow_11.4 routing_flow_11.4" vType="DEFAULT_VEHTYPE" speedFactor="0.89" vaporized=""/>
    <tripinfo id="flow_34.0" depart="13.00" departLane="-gneE17_0" departPos="5.10" departSpeed="0.00" departDelay="13.00" arrival="125.00" arrivalLane="gneE11_0" arrivalPos="183.20" arrivalSpeed="13.08" duration="112.00" routeLength="870.33" waitingTime="34.00" waitingCount="1" stopTime="0.00" timeLoss="47.30" rerouteNo="0" devices="tripinfo_flow_34.0 routing_flow_34.0" vType="DEFAULT_VEHTYPE" speedFactor="0.99" vaporized=""/>
    <tripinfo id="flow_36.2" depart="71.00" departLane="-gneE16_0" departPos="5.10" departSpeed="0.00" departDelay="3.08" arrival="125.00" arrivalLane="gneE17_3" arrivalPos="189.60" arrivalSpeed="13.85" duration="54.00" routeLength="392.43" waitingTime="14.00" waitingCount="1" stopTime="0.00" timeLoss="26.35" rerouteNo="0" devices="tripinfo_flow_36.2 routing_flow_36.2" vType="DEFAULT_VEHTYPE" speedFactor="1.06" vaporized=""/>
    <tripinfo id="flow_2.0" depart="6.00" departLane="gneE9_0" departPos="5.10" departSpeed="0.00" departDelay="6.00" arrival="126.00" arrivalLane="gneE15_0" arrivalPos="183.20" arrivalSpeed="13.01" duration="120.00" routeLength="876.73" waitingTime="43.00" waitingCount="1" stopTime="0.00" timeLoss="56.50" rerouteNo="0" devices="tripinfo_flow_2.0 routing_flow_2.0" vType="DEFAULT_VEHTYPE" speedFactor="1.01" vaporized=""/>
    <tripinfo id="flow_35.2" depart="68.00" departLane="-gneE16_0" departPos="5.10" departSpeed="0.00" departDelay="0.08" arrival="126.00" arrivalLane="gneE15_1" arrivalPos="183.20" arrivalSpeed="14.11" duration="58.00" routeLength="394.90" waitingTime="16.00" waitingCount="1" stopTime="0.00" timeLoss="31.20" rerouteNo="0" devices="tripinfo_flow_35.2 routing_flow_35.2" vType="DEFAULT_VEHTYPE" speedFactor="1.09" vaporized=""/>
    <tripinfo id="flow_35.3" depart="102.00" departLane="-gneE16_0" departPos="5.10" departSpeed="0.00" departDelay="0.11" arrival="133.00" arrivalLane="gneE15_1" arrivalPos="183.20" arrivalSpeed="14.60" duration="31.00" routeLength="394.90" waitingTime="0.00" waitingCount="0" stopTime="0.00" timeLoss="5.00" rerouteNo="0" devices="tripinfo_flow_35.3 routing_flow_35.3" vType="DEFAULT_VEHTYPE" speedFactor="1.10" vaporized=""/>
    <tripinfo id="flow_7.0" depart="3.00" departLane="-gneE10_0" departPos="5.10" departSpeed="0.00" departDelay="3.00" arrival="134.00" arrivalLane="gneE15_0" arrivalPos="183.20" arrivalSpeed="11.20" duration="131.00" routeLength="852.16" waitingTime="42.00" waitingCount="1" stopTime="0.00" timeLoss="59.29" rerouteNo="0" devices="tripinfo_flow_7.0 routing_flow_7.0" vType="DEFAULT_VEHTYPE" speedFactor="0.89" vaporized=""/>
    <tripinfo id="flow_12.0" depart="6.00" departLane="-gneE11_0" departPos="5.10" departSpeed="0.00" departDelay="6.00" arrival="134.00" arrivalLane="gneE14_0" arrivalPos="183.20" arrivalSpeed="13.98" duration="128.00" routeLength="572.80" waitingTime="73.00" waitingCount="1" stopTime="0.00" timeLoss="87.52" rerouteNo="0" devices="tripinfo_flow_12.0 routing_flow_12.0" vType="DEFAULT_VEHTYPE" speedFactor="1.05" vaporized=""/>
    <tripinfo id="flow_30.3" depart="104.00" departLane="-gneE17_0" departPos="5.10" departSpeed="0.00" departDelay="2.11" arrival="135.00" arrivalLane="gneE16_0" arrivalPos="183.20" arrivalSpeed="16.11" duration="31.00" routeLength="376.73" waitingTime="0.00" waitingCount="0" stopTime="0.00" timeLoss="7.06" rerouteNo="0" devices="tripinfo_flow_30.3 routing_flow_30.3" vType="DEFAULT_VEHTYPE" speedFactor="1.18" vaporized=""/>
    <tripinfo id="flow_7.1" depart="39.00" departLane="-gneE10_0" departPos="5.10" departSpeed="0.00" departDelay="3.71" arrival="136.00" arrivalLane="gneE15_0" arrivalPos="183.20" arrivalSpeed="11.95" duration="97.00" routeLength="852.16" waitingTime="12.00" waitingCount="1" stopTime="0.00" timeLoss="29.49" rerouteNo="0" devices="tripinfo_flow_7.1 routing_flow_7.1" vType="DEFAULT_VEHTYPE" speedFactor="0.94" vaporized=""/>
    <tripinfo id="flow_11.6" depart="108.00" departLane="-gneE11_0" departPos="5.10" departSpeed="0.00" departDelay="1.60" arrival="136.00" arrivalLane="gneE10_1" arrivalPos="183.20" arrivalSpeed="16.02" duration="28.00" routeLength="394.90" waitingTime="0.00" waitingCount="0" stopTime="0.00" timeLoss="4.48" rerouteNo="0" devices="tripinfo_flow_11.6 routing_flow_11.6" vType="DEFAULT_VEHTYPE" speedFactor="1.23" vaporized=""/>
    <tripinfo id="flow_19.1" depart="76.00" departLane="-gneE14_0" departPos="5.10" departSpeed="0.00" departDelay="9.33" arrival="137.00" arrivalLane="gneE15_0" arrivalPos="183.20" arrivalSpeed="13.22" duration="61.00" routeLength="658.56" waitingTime="0.00" waitingCount="0" stopTime="0.00" timeLoss="11.90" rerouteNo="0" devices="tripinfo_flow_19.1 routing_flow_19.1" vType="DEFAULT_VEHTYPE" speedFactor="1.00" vaporized=""/>
    <tripinfo id="flow_24.0" depart="6.00" departLane="-gneE15_0" departPos="5.10" departSpeed="0.00" departDelay="6.00" arrival="138.00" arrivalLane="gneE14_1" arrivalPos="183.20" arrivalSpeed="10.27" duration="132.00" routeLength="689.96" waitingTime="57.00" waitingCount="2" stopTime="0.00" timeLoss="70.43" rerouteNo="0" devices="tripinfo_flow_24.0 routing_flow_24.0" vType="DEFAULT_VEHTYPE" speedFactor="0.83" vaporized=""/>
    <tripinfo id="flow_36.3" depart="105.00" departLane="-gneE16_0" departPos="5.10" departSpeed="0.00" departDelay="3.11" arrival="138.00" arrivalLane="gneE17_3" arrivalPos="189.60" arrivalSpeed="13.48" duration="33.00" routeLength="392.43" waitingTime="0.00" waitingCount="0" stopTime="0.00" timeLoss="5.04" rerouteNo="0" devices="tripinfo_flow_36.3 routing_flow_36.3" vType="DEFAULT_VEHTYPE" speedFactor="1.03" vaporized=""/>
    <tripinfo id="flow_34.1" depart="46.00" departLane="-gneE17_0" departPos="5.10" departSpeed="0.00" departDelay="12.04" arrival="139.00" arrivalLane="gneE11_0" arrivalPos="183.20" arrivalSpeed="11.08" duration="93.00" routeLength="870.33" waitingTime="3.00" waitingCount="1" stopTime="0.00" timeLoss="18.11" rerouteNo="0" devices="tripinfo_flow_34.1 routing_flow_34.1" vType="DEFAULT_VEHTYPE" speedFactor="0.85" vaporized=""/>
    <tripinfo id="flow_12.1" depart="68.00" departLane="-gneE11_0" departPos="5.10" departSpeed="0.00" departDelay="0.08" arrival="139.00" arrivalLane="gneE14_0" arrivalPos="183.20" arrivalSpeed="15.49" duration="71.00" routeLength="572.80" waitingTime="17.00" waitingCount="1" stopTime="0.00" timeLoss="33.97" rerouteNo="0" devices="tripinfo_flow_12.1 routing_flow_12.1" vType="DEFAULT_VEHTYPE" speedFactor="1.15" vaporized=""/>
    <tripinfo id="flow_31.0" depart="5.00" departLane="-gneE17_0" departPos="5.10" departSpeed="0.00" departDelay="5.00" arrival="140.00" arrivalLane="gneE14_1" arrivalPos="183.20" arrivalSpeed="14.35" duration="135.00" routeLength="692.43" waitingTime="68.00" waitingCount="2" stopTime="0.00" timeLoss="90.81" rerouteNo="0" devices="tripinfo_flow_31.0 routing_flow_31.0" vType="DEFAULT_VEHTYPE" speedFactor="1.15" vaporized=""/>
    <tripinfo id="flow_31.1" depart="39.00" departLane="-gneE17_0" departPos="5.10" departSpeed="0.00" departDelay="5.04" arrival="142.00" arrivalLane="gneE14_1" arrivalPos="183.20" arrivalSpeed="13.78" duration="103.00" routeLength="692.43" waitingTime="32.00" waitingCount="2" stopTime="0.00" timeLoss="51.61" rerouteNo="0" devices="tripinfo_flow_31.1 routing_flow_31.1" vType="DEFAULT_VEHTYPE" speedFactor="1.00" vaporized=""/>
    <tripinfo id="flow_31.2" depart="73.00" departLane="-gneE17_0" departPos="5.10" departSpeed="0.00" departDelay="5.08" arrival="143.00" arrivalLane="gneE14_1" arrivalPos="183.20" arrivalSpeed="13.63" duration="70.00" routeLength="692.43" waitingTime="6.00" waitingCount="1" stopTime="0.00" timeLoss="20.35" rerouteNo="0" devices="tripinfo_flow_31.2 routing_flow_31.2" vType="DEFAULT_VEHTYPE" speedFactor="1.02" vaporized=""/>
    <tripinfo id="flow_37.0" depart="6.00" departLane="-gneE16_0" departPos="5.10" departSpeed="0.00" departDelay="6.00" arrival="145.00" arrivalLane="gneE14_1" arrivalPos="183.20" arrivalSpeed="15.58" duration="139.00" routeLength="674.26" waitingTime="75.00" waitingCount="1" stopTime="0.00" timeLoss="96.37" rerouteNo="0" devices="tripinfo_flow_37.0 routing_flow_37.0" vType="DEFAULT_VEHTYPE" speedFactor="1.18" vaporized=""/>
    <tripinfo id="flow_10.3" depart="105.00" departLane="-gneE11_0" departPos="5.10" departSpeed="0.00" departDelay="0.15" arrival="145.00" arrivalLane="-gneE9_0" arrivalPos="183.20" arrivalSpeed="10.84" duration="40.00" routeLength="370.33" waitingTime="0.00" waitingCount="0" stopTime="0.00" timeLoss="6.27" rerouteNo="0" devices="tripinfo_flow_10.3 routing_flow_10.3" vType="DEFAULT_VEHTYPE" speedFactor="0.82" vaporized=""/>
    <tripinfo id="flow_0.3" depart="111.00" departLane="gneE9_0" departPos="5.10" departSpeed="0.00" departDelay="3.00" arrival="145.00" arrivalLane="gneE10_0" arrivalPos="183.20" arrivalSpeed="13.28" duration="34.00" routeLength="370.33" waitingTime="0.00" waitingCount="0" stopTime="0.00" timeLoss="6.87" rerouteNo="0" devices="tripinfo_flow_0.3 routing_flow_0.3" vType="DEFAULT_VEHTYPE" speedFactor="1.01" vaporized=""/>
    <tripinfo id="flow_3.0" depart="9.00" departLane="gneE9_0" departPos="5.10" departSpeed="0.00" departDelay="9.00" arrival="150.00" arrivalLane="gneE17_2" arrivalPos="189.60" arrivalSpeed="14.03" duration="141.00" routeLength="894.90" waitingTime="61.00" waitingCount="2" stopTime="0.00" timeLoss="80.59" rerouteNo="0" devices="tripinfo_flow_3.0 routing_flow_3.0" vType="DEFAULT_VEHTYPE" speedFactor="1.08" vaporized=""/>
    <tripinfo id="flow_20.0" depart="12.00" departLane="-gneE14_0" departPos="5.10" departSpeed="0.00" departDelay="12.00" arrival="150.00" arrivalLane="gneE17_1" arrivalPos="189.60" arrivalSpeed="13.44" duration="138.00" routeLength="676.73" waitingTime="76.00" waitingCount="1" stopTime="0.00" timeLoss="89.09" rerouteNo="0" devices="tripinfo_flow_20.0 routing_flow_20.0" vType="DEFAULT_VEHTYPE" speedFactor="1.02" vaporized=""/>
    <tripinfo id="flow_21.0" depart="15.00" departLane="-gneE14_0" departPos="5.10" departSpeed="0.00" departDelay="15.00" arrival="150.00" arrivalLane="gneE16_1" arrivalPos="183.20" arrivalSpeed="12.92" duration="135.00" routeLength="674.26" waitingTime="74.00" waitingCount="1" stopTime="0.00" timeLoss="85.26" rerouteNo="0" devices="tripinfo_flow_21.0 routing_flow_21.0" vType="DEFAULT_VEHTYPE" speedFactor="1.01" vaporized=""/>
    <tripinfo id="flow_7.2" depart="74.00" departLane="-gneE10_0" departPos="5.10" departSpeed="0.00" departDelay="3.41" arrival="150.00" arrivalLane="gneE15_0" arrivalPos="183.20" arrivalSpeed="13.07" duration="76.00" routeLength="852.16" waitingTime="0.00" waitingCount="0" stopTime="0.00" timeLoss="10.76" rerouteNo="0" devices="tripinfo_flow_7.2 routing_flow_7.2" vType="DEFAULT_VEHTYPE" speedFactor="0.97" vaporized=""/>
    <tripinfo id="flow_8.1" depart="18.00" departLane="-gneE10_0" departPos="5.10" departSpeed="0.00" departDelay="0.18" arrival="151.00" arrivalLane="gneE17_1" arrivalPos="189.60" arrivalSpeed="14.74" duration="133.00" routeLength="870.33" waitingTime="52.00" waitingCount="2" stopTime="0.00" timeLoss="75.15" rerouteNo="0" devices="tripinfo_flow_8.1 routing_flow_8.1" vType="DEFAULT_VEHTYPE" speedFactor="1.09" vaporized=""/>
    <tripinfo id="flow_4.0" depart="12.00" departLane="gneE9_0" departPos="5.10" departSpeed="0.00" departDelay="12.00" arrival="152.00" arrivalLane="gneE16_1" arrivalPos="183.20" arrivalSpeed="13.74" duration="140.00" routeLength="892.43" waitingTime="60.00" waitingCount="2" stopTime="0.00" timeLoss="76.17" rerouteNo="0" devices="tripinfo_flow_4.0 routing_flow_4.0" vType="DEFAULT_VEHTYPE" speedFactor="1.03" vaporized=""/>
    <tripinfo id="flow_8.0" depart="7.00" departLane="-gneE10_0" departPos="5.10" departSpeed="0.00" departDelay="7.00" arrival="153.00" arrivalLane="gneE17_2" arrivalPos="189.60" arrivalSpeed="11.80" duration="146.00" routeLength="870.33" waitingTime="55.00" waitingCount="2" stopTime="0.00" timeLoss="78.75" rerouteNo="0" devices="tripinfo_flow_8.0 routing_flow_8.0" vType="DEFAULT_VEHTYPE" speedFactor="0.94" vaporized=""/>
    <tripinfo id="flow_8.3" depart="54.00" departLane="-gneE10_0" departPos="5.10" departSpeed="0.00" departDelay="0.53" arrival="153.00" arrivalLane="gneE17_1" arrivalPos="189.60" arrivalSpeed="13.55" duration="99.00" routeLength="870.33" waitingTime="15.00" waitingCount="1" stopTime="0.00" timeLoss="37.07" rerouteNo="0" devices="tripinfo_flow_8.3 routing_flow_8.3" vType="DEFAULT_VEHTYPE" speedFactor="1.02" vaporized=""/>
    <tripinfo id="flow_6.3" depart="106.00" departLane="-gneE10_0" departPos="5.10" departSpeed="0.00" departDelay="0.12" arrival="153.00" arrivalLane="gneE14_0" arrivalPos="183.20" arrivalSpeed="15.35" duration="47.00" routeLength="552.16" waitingTime="0.00" waitingCount="0" stopTime="0.00" timeLoss="9.65" rerouteNo="0" devices="tripinfo_flow_6.3 routing_flow_6.3" vType="DEFAULT_VEHTYPE" speedFactor="1.12" vaporized=""/>
    <tripinfo id="flow_5.0" depart="15.00" departLane="gneE9_0" departPos="5.10" departSpeed="0.00" departDelay="15.00" arrival="154.00" arrivalLane="gneE11_3" arrivalPos="183.20" arrivalSpeed="10.52" duration="139.00" routeLength="390.97" waitingTime="95.00" waitingCount="1" stopTime="0.00" timeLoss="103.78" rerouteNo="0" devices="tripinfo_flow_5.0 routing_flow_5.0" vType="DEFAULT_VEHTYPE" speedFactor="0.83" vaporized=""/>
    <tripinfo id="flow_5.1" depart="50.00" departLane="gneE9_0" departPos="5.10" departSpeed="0.00" departDelay="14.36" arrival="155.00" arrivalLane="gneE11_3" arrivalPos="183.20" arrivalSpeed="13.49" duration="105.00" routeLength="390.97" waitingTime="63.00" waitingCount="1" stopTime="0.00" timeLoss="76.62" rerouteNo="0" devices="tripinfo_flow_5.1 routing_flow_5.1" vType="DEFAULT_VEHTYPE" speedFactor="1.02" vaporized=""/>
    <tripinfo id="flow_20.1" depart="79.00" departLane="-gneE14_0" departPos="5.10" departSpeed="0.00" departDelay="12.33" arrival="155.00" arrivalLane="gneE17_1" arrivalPos="189.60" arrivalSpeed="13.43" duration="76.00" routeLength="676.73" waitingTime="13.00" waitingCount="1" stopTime="0.00" timeLoss="26.96" rerouteNo="0" devices="tripinfo_flow_20.1 routing_flow_20.1" vType="DEFAULT_VEHTYPE" speedFactor="1.02" vaporized=""/>